PROCAR lm decomposed
# of k-points:   21         # of bands:   16         # of ions:    2

 k-point     1 :    0.00000000 0.00000000 0.00000000     weight = 0.00694444

band     1 # energy    1.50855509 # occ.  1.00000000
 
ion      s     py     pz     px    dxy    dyz    dz2    dxz  x2-y2    tot
    1  0.371  0.000  0.000  0.000  0.000  0.000  0.000  0.000  0.000  0.371
    2  0.371  0.000  0.000  0.000  0.000  0.000  0.000  0.000  0.000  0.371
tot    0.741  0.000  0.000  0.000  0.000  0.000  0.000  0.000  0.000  0.741
 
band     2 # energy    5.32058496 # occ.  1.00000000
 
ion      s     py     pz     px    dxy    dyz    dz2    dxz  x2-y2    tot
    1  0.084  0.000  0.000  0.000  0.000  0.000  0.367  0.000  0.000  0.451
    2  0.084  0.000  0.000  0.000  0.000  0.000  0.367  0.000  0.000  0.451
tot    0.168  0.000  0.000  0.000  0.000  0.000  0.733  0.000  0.000  0.901
 
band     3 # energy    7.88369743 # occ.  1.00000000
 
ion      s     py     pz     px    dxy    dyz    dz2    dxz  x2-y2    tot
    1  0.000  0.000  0.000  0.000  0.000  0.000  0.487  0.000  0.000  0.487
    2  0.000  0.000  0.000  0.000  0.000  0.000  0.487  0.000  0.000  0.487
tot    0.000  0.000  0.000  0.000  0.000  0.000  0.973  0.000  0.000  0.973
 
band     4 # energy    7.95998513 # occ.  1.00000000
 
ion      s     py     pz     px    dxy    dyz    dz2    dxz  x2-y2    tot
    1  0.000  0.000  0.000  0.001  0.483  0.000  0.000  0.000  0.000  0.484
    2  0.000  0.000  0.000  0.001  0.483  0.000  0.000  0.000  0.000  0.484
tot    0.000  0.000  0.000  0.001  0.966  0.000  0.000  0.000  0.000  0.968
 
band     5 # energy    7.95998522 # occ.  1.00000000
 
ion      s     py     pz     px    dxy    dyz    dz2    dxz  x2-y2    tot
    1  0.000  0.001  0.000  0.000  0.000  0.000  0.000  0.000  0.483  0.484
    2  0.000  0.001  0.000  0.000  0.000  0.000  0.000  0.000  0.483  0.484
tot    0.000  0.001  0.000  0.000  0.000  0.000  0.000  0.000  0.966  0.968
 
band     6 # energy    8.27675379 # occ.  1.00000000
 
ion      s     py     pz     px    dxy    dyz    dz2    dxz  x2-y2    tot
    1  0.000  0.000  0.000  0.001  0.487  0.000  0.000  0.000  0.000  0.488
    2  0.000  0.000  0.000  0.001  0.487  0.000  0.000  0.000  0.000  0.488
tot    0.000  0.000  0.000  0.001  0.975  0.000  0.000  0.000  0.000  0.976
 
band     7 # energy    8.27675384 # occ.  1.00000000
 
ion      s     py     pz     px    dxy    dyz    dz2    dxz  x2-y2    tot
    1  0.000  0.001  0.000  0.000  0.000  0.000  0.000  0.000  0.487  0.488
    2  0.000  0.001  0.000  0.000  0.000  0.000  0.000  0.000  0.487  0.488
tot    0.000  0.001  0.000  0.000  0.000  0.000  0.000  0.000  0.975  0.976
 
band     8 # energy    8.64573071 # occ.  1.00000000
 
ion      s     py     pz     px    dxy    dyz    dz2    dxz  x2-y2    tot
    1  0.000  0.000  0.000  0.000  0.000  0.000  0.000  0.490  0.000  0.490
    2  0.000  0.000  0.000  0.000  0.000  0.000  0.000  0.490  0.000  0.490
tot    0.000  0.000  0.000  0.000  0.000  0.000  0.000  0.980  0.000  0.980
 
band     9 # energy    8.64573073 # occ.  1.00000000
 
ion      s     py     pz     px    dxy    dyz    dz2    dxz  x2-y2    tot
    1  0.000  0.000  0.000  0.000  0.000  0.490  0.000  0.000  0.000  0.490
    2  0.000  0.000  0.000  0.000  0.000  0.490  0.000  0.000  0.000  0.490
tot    0.000  0.000  0.000  0.000  0.000  0.980  0.000  0.000  0.000  0.980
 
band    10 # energy    9.75754923 # occ.  1.00000000
 
ion      s     py     pz     px    dxy    dyz    dz2    dxz  x2-y2    tot
    1  0.000  0.000  0.000  0.000  0.000  0.000  0.000  0.493  0.000  0.493
    2  0.000  0.000  0.000  0.000  0.000  0.000  0.000  0.493  0.000  0.493
tot    0.000  0.000  0.000  0.000  0.000  0.000  0.000  0.985  0.000  0.985
 
band    11 # energy    9.75754930 # occ.  1.00000000
 
ion      s     py     pz     px    dxy    dyz    dz2    dxz  x2-y2    tot
    1  0.000  0.000  0.000  0.000  0.000  0.493  0.000  0.000  0.000  0.493
    2  0.000  0.000  0.000  0.000  0.000  0.493  0.000  0.000  0.000  0.493
tot    0.000  0.000  0.000  0.000  0.000  0.985  0.000  0.000  0.000  0.985
 
band    12 # energy   10.37444821 # occ.  0.99959735
 
ion      s     py     pz     px    dxy    dyz    dz2    dxz  x2-y2    tot
    1  0.000  0.000  0.352  0.000  0.000  0.000  0.000  0.000  0.000  0.352
    2  0.000  0.000  0.352  0.000  0.000  0.000  0.000  0.000  0.000  0.352
tot    0.000  0.000  0.703  0.000  0.000  0.000  0.000  0.000  0.000  0.703
 
band    13 # energy   16.99007983 # occ.  0.00000000
 
ion      s     py     pz     px    dxy    dyz    dz2    dxz  x2-y2    tot
    1  0.227  0.000  0.000  0.000  0.000  0.000  0.232  0.000  0.000  0.459
    2  0.227  0.000  0.000  0.000  0.000  0.000  0.232  0.000  0.000  0.459
tot    0.454  0.000  0.000  0.000  0.000  0.000  0.465  0.000  0.000  0.918
 
band    14 # energy   32.75399814 # occ.  0.00000000
 
ion      s     py     pz     px    dxy    dyz    dz2    dxz  x2-y2    tot
    1  0.007  0.000  0.000  0.000  0.000  0.000  0.032  0.000  0.000  0.038
    2  0.007  0.000  0.000  0.000  0.000  0.000  0.032  0.000  0.000  0.038
tot    0.013  0.000  0.000  0.000  0.000  0.000  0.064  0.000  0.000  0.077
 
band    15 # energy   35.56635345 # occ.  0.00000000
 
ion      s     py     pz     px    dxy    dyz    dz2    dxz  x2-y2    tot
    1  0.000  0.200  0.000  0.067  0.031  0.000  0.000  0.000  0.093  0.392
    2  0.000  0.200  0.000  0.067  0.031  0.000  0.000  0.000  0.093  0.392
tot    0.000  0.401  0.000  0.134  0.062  0.000  0.000  0.000  0.187  0.783
 
band    16 # energy   35.56660290 # occ.  0.00000000
 
ion      s     py     pz     px    dxy    dyz    dz2    dxz  x2-y2    tot
    1  0.000  0.067  0.000  0.200  0.093  0.000  0.000  0.000  0.031  0.392
    2  0.000  0.067  0.000  0.200  0.093  0.000  0.000  0.000  0.031  0.391
tot    0.000  0.134  0.000  0.401  0.186  0.000  0.000  0.000  0.062  0.783
 

 k-point     2 :    0.16666667 0.00000000 0.00000000     weight = 0.04166667

band     1 # energy    2.47272074 # occ.  1.00000000
 
ion      s     py     pz     px    dxy    dyz    dz2    dxz  x2-y2    tot
    1  0.336  0.008  0.000  0.024  0.002  0.000  0.001  0.000  0.001  0.372
    2  0.336  0.008  0.000  0.024  0.002  0.000  0.001  0.000  0.001  0.372
tot    0.672  0.016  0.000  0.048  0.004  0.000  0.002  0.000  0.001  0.744
 
band     2 # energy    5.84268264 # occ.  1.00000000
 
ion      s     py     pz     px    dxy    dyz    dz2    dxz  x2-y2    tot
    1  0.055  0.004  0.000  0.012  0.019  0.000  0.358  0.000  0.006  0.455
    2  0.055  0.004  0.000  0.012  0.019  0.000  0.358  0.000  0.006  0.455
tot    0.109  0.008  0.000  0.025  0.038  0.000  0.717  0.000  0.013  0.909
 
band     3 # energy    7.42789569 # occ.  1.00000000
 
ion      s     py     pz     px    dxy    dyz    dz2    dxz  x2-y2    tot
    1  0.000  0.001  0.000  0.004  0.259  0.000  0.124  0.000  0.086  0.476
    2  0.000  0.001  0.000  0.004  0.259  0.000  0.124  0.000  0.086  0.476
tot    0.001  0.003  0.000  0.009  0.518  0.000  0.248  0.000  0.173  0.951
 
band     4 # energy    7.71821550 # occ.  1.00000000
 
ion      s     py     pz     px    dxy    dyz    dz2    dxz  x2-y2    tot
    1  0.000  0.000  0.068  0.000  0.000  0.095  0.000  0.286  0.000  0.449
    2  0.000  0.000  0.068  0.000  0.000  0.095  0.000  0.286  0.000  0.449
tot    0.000  0.000  0.136  0.000  0.000  0.190  0.000  0.571  0.000  0.898
 
band     5 # energy    8.03833884 # occ.  1.00000000
 
ion      s     py     pz     px    dxy    dyz    dz2    dxz  x2-y2    tot
    1  0.004  0.000  0.000  0.001  0.310  0.000  0.064  0.000  0.103  0.483
    2  0.004  0.000  0.000  0.001  0.310  0.000  0.064  0.000  0.103  0.483
tot    0.008  0.001  0.000  0.003  0.620  0.000  0.128  0.000  0.207  0.967
 
band     6 # energy    8.39270057 # occ.  1.00000000
 
ion      s     py     pz     px    dxy    dyz    dz2    dxz  x2-y2    tot
    1  0.000  0.000  0.000  0.000  0.000  0.365  0.000  0.122  0.000  0.487
    2  0.000  0.000  0.000  0.000  0.000  0.365  0.000  0.122  0.000  0.487
tot    0.000  0.000  0.000  0.000  0.000  0.731  0.000  0.244  0.000  0.974
 
band     7 # energy    8.40892572 # occ.  1.00000000
 
ion      s     py     pz     px    dxy    dyz    dz2    dxz  x2-y2    tot
    1  0.000  0.002  0.000  0.001  0.121  0.000  0.000  0.000  0.362  0.484
    2  0.000  0.002  0.000  0.001  0.121  0.000  0.000  0.000  0.362  0.484
tot    0.000  0.003  0.000  0.001  0.241  0.000  0.000  0.000  0.724  0.969
 
band     8 # energy    8.41763102 # occ.  1.00000000
 
ion      s     py     pz     px    dxy    dyz    dz2    dxz  x2-y2    tot
    1  0.002  0.000  0.000  0.001  0.125  0.000  0.316  0.000  0.042  0.487
    2  0.002  0.000  0.000  0.001  0.125  0.000  0.316  0.000  0.042  0.487
tot    0.004  0.001  0.000  0.003  0.250  0.000  0.632  0.000  0.083  0.973
 
band     9 # energy    8.57956662 # occ.  1.00000000
 
ion      s     py     pz     px    dxy    dyz    dz2    dxz  x2-y2    tot
    1  0.000  0.000  0.034  0.000  0.000  0.110  0.000  0.331  0.000  0.475
    2  0.000  0.000  0.034  0.000  0.000  0.110  0.000  0.331  0.000  0.475
tot    0.000  0.000  0.068  0.000  0.000  0.221  0.000  0.662  0.000  0.950
 
band    10 # energy    8.67285605 # occ.  1.00000000
 
ion      s     py     pz     px    dxy    dyz    dz2    dxz  x2-y2    tot
    1  0.000  0.002  0.000  0.001  0.122  0.000  0.000  0.000  0.365  0.489
    2  0.000  0.002  0.000  0.001  0.122  0.000  0.000  0.000  0.365  0.489
tot    0.000  0.003  0.000  0.001  0.243  0.000  0.000  0.000  0.730  0.978
 
band    11 # energy    9.85229277 # occ.  1.00000000
 
ion      s     py     pz     px    dxy    dyz    dz2    dxz  x2-y2    tot
    1  0.000  0.000  0.000  0.000  0.000  0.371  0.000  0.124  0.000  0.495
    2  0.000  0.000  0.000  0.000  0.000  0.371  0.000  0.124  0.000  0.495
tot    0.000  0.000  0.000  0.000  0.000  0.742  0.000  0.247  0.000  0.989
 
band    12 # energy   13.14663209 # occ.  0.00000000
 
ion      s     py     pz     px    dxy    dyz    dz2    dxz  x2-y2    tot
    1  0.000  0.000  0.236  0.000  0.000  0.044  0.000  0.131  0.000  0.411
    2  0.000  0.000  0.236  0.000  0.000  0.044  0.000  0.131  0.000  0.411
tot    0.000  0.000  0.473  0.000  0.000  0.087  0.000  0.262  0.000  0.822
 
band    13 # energy   17.17705925 # occ.  0.00000000
 
ion      s     py     pz     px    dxy    dyz    dz2    dxz  x2-y2    tot
    1  0.209  0.008  0.000  0.024  0.001  0.000  0.208  0.000  0.000  0.450
    2  0.209  0.008  0.000  0.024  0.001  0.000  0.208  0.000  0.000  0.450
tot    0.418  0.016  0.000  0.048  0.001  0.000  0.415  0.000  0.000  0.899
 
band    14 # energy   27.14731274 # occ.  0.00000000
 
ion      s     py     pz     px    dxy    dyz    dz2    dxz  x2-y2    tot
    1  0.042  0.037  0.000  0.110  0.122  0.000  0.023  0.000  0.041  0.374
    2  0.042  0.037  0.000  0.110  0.122  0.000  0.023  0.000  0.041  0.374
tot    0.084  0.073  0.000  0.220  0.244  0.000  0.046  0.000  0.081  0.749
 
band    15 # energy   30.96088135 # occ.  0.00000000
 
ion      s     py     pz     px    dxy    dyz    dz2    dxz  x2-y2    tot
    1  0.000  0.190  0.000  0.063  0.033  0.000  0.000  0.000  0.100  0.387
    2  0.000  0.190  0.000  0.063  0.033  0.000  0.000  0.000  0.100  0.387
tot    0.000  0.380  0.000  0.127  0.067  0.000  0.000  0.000  0.201  0.774
 
band    16 # energy   32.35531226 # occ.  0.00000000
 
ion      s     py     pz     px    dxy    dyz    dz2    dxz  x2-y2    tot
    1  0.022  0.006  0.000  0.017  0.147  0.000  0.048  0.000  0.049  0.288
    2  0.022  0.006  0.000  0.017  0.147  0.000  0.048  0.000  0.049  0.288
tot    0.043  0.011  0.000  0.033  0.294  0.000  0.096  0.000  0.098  0.576
 

 k-point     3 :    0.33333333 0.00000000 0.00000000     weight = 0.04166667

band     1 # energy    4.72541124 # occ.  1.00000000
 
ion      s     py     pz     px    dxy    dyz    dz2    dxz  x2-y2    tot
    1  0.213  0.018  0.000  0.055  0.068  0.000  0.017  0.000  0.023  0.394
    2  0.213  0.018  0.000  0.055  0.068  0.000  0.017  0.000  0.023  0.394
tot    0.426  0.037  0.000  0.111  0.136  0.000  0.034  0.000  0.045  0.788
 
band     2 # energy    6.06766609 # occ.  1.00000000
 
ion      s     py     pz     px    dxy    dyz    dz2    dxz  x2-y2    tot
    1  0.015  0.001  0.000  0.003  0.212  0.000  0.162  0.000  0.071  0.464
    2  0.015  0.001  0.000  0.003  0.212  0.000  0.162  0.000  0.071  0.464
tot    0.031  0.002  0.000  0.006  0.425  0.000  0.324  0.000  0.142  0.929
 
band     3 # energy    6.43571364 # occ.  1.00000000
 
ion      s     py     pz     px    dxy    dyz    dz2    dxz  x2-y2    tot
    1  0.000  0.000  0.036  0.000  0.000  0.103  0.000  0.309  0.000  0.448
    2  0.000  0.000  0.036  0.000  0.000  0.103  0.000  0.309  0.000  0.448
tot    0.000  0.000  0.072  0.000  0.000  0.206  0.000  0.618  0.000  0.896
 
band     4 # energy    7.38480561 # occ.  1.00000000
 
ion      s     py     pz     px    dxy    dyz    dz2    dxz  x2-y2    tot
    1  0.010  0.018  0.000  0.053  0.173  0.000  0.136  0.000  0.058  0.447
    2  0.010  0.018  0.000  0.053  0.173  0.000  0.136  0.000  0.058  0.447
tot    0.019  0.035  0.000  0.106  0.346  0.000  0.273  0.000  0.115  0.894
 
band     5 # energy    7.98141663 # occ.  1.00000000
 
ion      s     py     pz     px    dxy    dyz    dz2    dxz  x2-y2    tot
    1  0.000  0.000  0.000  0.000  0.000  0.363  0.000  0.121  0.000  0.484
    2  0.000  0.000  0.000  0.000  0.000  0.363  0.000  0.121  0.000  0.484
tot    0.000  0.000  0.000  0.000  0.000  0.726  0.000  0.242  0.000  0.968
 
band     6 # energy    8.05564602 # occ.  1.00000000
 
ion      s     py     pz     px    dxy    dyz    dz2    dxz  x2-y2    tot
    1  0.009  0.004  0.000  0.011  0.128  0.000  0.285  0.000  0.043  0.480
    2  0.009  0.004  0.000  0.011  0.128  0.000  0.285  0.000  0.043  0.480
tot    0.017  0.007  0.000  0.022  0.256  0.000  0.571  0.000  0.085  0.959
 
band     7 # energy    8.18214275 # occ.  1.00000000
 
ion      s     py     pz     px    dxy    dyz    dz2    dxz  x2-y2    tot
    1  0.000  0.000  0.028  0.000  0.000  0.112  0.000  0.335  0.000  0.475
    2  0.000  0.000  0.028  0.000  0.000  0.112  0.000  0.335  0.000  0.475
tot    0.000  0.000  0.057  0.000  0.000  0.224  0.000  0.671  0.000  0.951
 
band     8 # energy    9.40230641 # occ.  1.00000000
 
ion      s     py     pz     px    dxy    dyz    dz2    dxz  x2-y2    tot
    1  0.000  0.001  0.000  0.000  0.122  0.000  0.000  0.000  0.367  0.490
    2  0.000  0.001  0.000  0.000  0.122  0.000  0.000  0.000  0.367  0.490
tot    0.000  0.002  0.000  0.001  0.244  0.000  0.000  0.000  0.733  0.980
 
band     9 # energy    9.54741252 # occ.  1.00000000
 
ion      s     py     pz     px    dxy    dyz    dz2    dxz  x2-y2    tot
    1  0.000  0.002  0.000  0.001  0.122  0.000  0.000  0.000  0.367  0.493
    2  0.000  0.002  0.000  0.001  0.122  0.000  0.000  0.000  0.367  0.493
tot    0.000  0.005  0.000  0.002  0.245  0.000  0.000  0.000  0.734  0.985
 
band    10 # energy    9.57576323 # occ.  1.00000000
 
ion      s     py     pz     px    dxy    dyz    dz2    dxz  x2-y2    tot
    1  0.018  0.006  0.000  0.019  0.105  0.000  0.297  0.000  0.035  0.481
    2  0.018  0.006  0.000  0.019  0.105  0.000  0.297  0.000  0.035  0.481
tot    0.037  0.012  0.000  0.037  0.211  0.000  0.594  0.000  0.070  0.961
 
band    11 # energy    9.95260952 # occ.  1.00000000
 
ion      s     py     pz     px    dxy    dyz    dz2    dxz  x2-y2    tot
    1  0.000  0.000  0.000  0.000  0.000  0.372  0.000  0.124  0.000  0.496
    2  0.000  0.000  0.000  0.000  0.000  0.372  0.000  0.124  0.000  0.496
tot    0.000  0.000  0.000  0.000  0.000  0.744  0.000  0.248  0.000  0.992
 
band    12 # energy   16.95121569 # occ.  0.00000000
 
ion      s     py     pz     px    dxy    dyz    dz2    dxz  x2-y2    tot
    1  0.000  0.000  0.245  0.000  0.000  0.042  0.000  0.126  0.000  0.413
    2  0.000  0.000  0.245  0.000  0.000  0.042  0.000  0.126  0.000  0.413
tot    0.000  0.000  0.491  0.000  0.000  0.084  0.000  0.252  0.000  0.826
 
band    13 # energy   17.55260524 # occ.  0.00000000
 
ion      s     py     pz     px    dxy    dyz    dz2    dxz  x2-y2    tot
    1  0.052  0.054  0.000  0.163  0.006  0.000  0.147  0.000  0.002  0.424
    2  0.052  0.054  0.000  0.163  0.006  0.000  0.147  0.000  0.002  0.424
tot    0.104  0.109  0.000  0.326  0.011  0.000  0.294  0.000  0.004  0.849
 
band    14 # energy   20.48270089 # occ.  0.00000000
 
ion      s     py     pz     px    dxy    dyz    dz2    dxz  x2-y2    tot
    1  0.216  0.012  0.000  0.036  0.101  0.000  0.009  0.000  0.034  0.409
    2  0.216  0.012  0.000  0.036  0.101  0.000  0.009  0.000  0.034  0.409
tot    0.433  0.024  0.000  0.073  0.202  0.000  0.018  0.000  0.067  0.818
 
band    15 # energy   27.16864895 # occ.  0.00000000
 
ion      s     py     pz     px    dxy    dyz    dz2    dxz  x2-y2    tot
    1  0.000  0.225  0.000  0.075  0.011  0.000  0.000  0.000  0.033  0.345
    2  0.000  0.225  0.000  0.075  0.011  0.000  0.000  0.000  0.033  0.345
tot    0.000  0.451  0.000  0.150  0.022  0.000  0.000  0.000  0.067  0.690
 
band    16 # energy   27.68218035 # occ.  0.00000000
 
ion      s     py     pz     px    dxy    dyz    dz2    dxz  x2-y2    tot
    1  0.000  0.000  0.099  0.000  0.000  0.064  0.000  0.191  0.000  0.353
    2  0.000  0.000  0.099  0.000  0.000  0.064  0.000  0.191  0.000  0.353
tot    0.000  0.000  0.199  0.000  0.000  0.127  0.000  0.381  0.000  0.707
 

 k-point     4 :    0.50000000 0.00000000 0.00000000     weight = 0.02083333

band     1 # energy    5.71828053 # occ.  1.00000000
 
ion      s     py     pz     px    dxy    dyz    dz2    dxz  x2-y2    tot
    1  0.010  0.000  0.000  0.001  0.264  0.000  0.095  0.000  0.088  0.458
    2  0.010  0.000  0.000  0.001  0.264  0.000  0.095  0.000  0.088  0.458
tot    0.020  0.001  0.000  0.002  0.527  0.000  0.190  0.000  0.176  0.915
 
band     2 # energy    5.75080107 # occ.  1.00000000
 
ion      s     py     pz     px    dxy    dyz    dz2    dxz  x2-y2    tot
    1  0.087  0.006  0.000  0.018  0.226  0.000  0.034  0.000  0.075  0.447
    2  0.087  0.006  0.000  0.018  0.226  0.000  0.034  0.000  0.075  0.447
tot    0.175  0.012  0.000  0.037  0.452  0.000  0.068  0.000  0.151  0.895
 
band     3 # energy    6.00696165 # occ.  1.00000000
 
ion      s     py     pz     px    dxy    dyz    dz2    dxz  x2-y2    tot
    1  0.000  0.000  0.017  0.000  0.000  0.108  0.000  0.325  0.000  0.450
    2  0.000  0.000  0.017  0.000  0.000  0.108  0.000  0.325  0.000  0.450
tot    0.000  0.000  0.033  0.000  0.000  0.217  0.000  0.650  0.000  0.899
 
band     4 # energy    7.80130959 # occ.  1.00000000
 
ion      s     py     pz     px    dxy    dyz    dz2    dxz  x2-y2    tot
    1  0.000  0.000  0.000  0.000  0.000  0.362  0.000  0.121  0.000  0.483
    2  0.000  0.000  0.000  0.000  0.000  0.362  0.000  0.121  0.000  0.483
tot    0.000  0.000  0.000  0.000  0.000  0.725  0.000  0.242  0.000  0.966
 
band     5 # energy    8.00030893 # occ.  1.00000000
 
ion      s     py     pz     px    dxy    dyz    dz2    dxz  x2-y2    tot
    1  0.000  0.000  0.031  0.000  0.000  0.111  0.000  0.333  0.000  0.474
    2  0.000  0.000  0.031  0.000  0.000  0.111  0.000  0.333  0.000  0.474
tot    0.000  0.000  0.061  0.000  0.000  0.222  0.000  0.665  0.000  0.948
 
band     6 # energy    8.01496136 # occ.  1.00000000
 
ion      s     py     pz     px    dxy    dyz    dz2    dxz  x2-y2    tot
    1  0.023  0.035  0.000  0.105  0.021  0.000  0.231  0.000  0.007  0.421
    2  0.023  0.035  0.000  0.105  0.021  0.000  0.231  0.000  0.007  0.421
tot    0.046  0.070  0.000  0.210  0.041  0.000  0.462  0.000  0.014  0.843
 
band     7 # energy    8.34158122 # occ.  1.00000000
 
ion      s     py     pz     px    dxy    dyz    dz2    dxz  x2-y2    tot
    1  0.003  0.005  0.000  0.015  0.064  0.000  0.374  0.000  0.021  0.482
    2  0.003  0.005  0.000  0.015  0.064  0.000  0.374  0.000  0.021  0.482
tot    0.006  0.010  0.000  0.030  0.127  0.000  0.748  0.000  0.042  0.964
 
band     8 # energy    9.92561297 # occ.  1.00000000
 
ion      s     py     pz     px    dxy    dyz    dz2    dxz  x2-y2    tot
    1  0.000  0.000  0.000  0.000  0.124  0.000  0.000  0.000  0.372  0.496
    2  0.000  0.000  0.000  0.000  0.124  0.000  0.000  0.000  0.372  0.496
tot    0.000  0.000  0.000  0.000  0.248  0.000  0.000  0.000  0.744  0.991
 
band     9 # energy    9.98013229 # occ.  1.00000000
 
ion      s     py     pz     px    dxy    dyz    dz2    dxz  x2-y2    tot
    1  0.000  0.000  0.000  0.000  0.000  0.372  0.000  0.124  0.000  0.496
    2  0.000  0.000  0.000  0.000  0.000  0.372  0.000  0.124  0.000  0.496
tot    0.000  0.000  0.000  0.000  0.000  0.745  0.000  0.248  0.000  0.993
 
band    10 # energy   10.07488736 # occ.  1.00000000
 
ion      s     py     pz     px    dxy    dyz    dz2    dxz  x2-y2    tot
    1  0.000  0.000  0.000  0.000  0.124  0.000  0.000  0.000  0.372  0.497
    2  0.000  0.000  0.000  0.000  0.124  0.000  0.000  0.000  0.372  0.497
tot    0.000  0.000  0.000  0.000  0.248  0.000  0.000  0.000  0.745  0.993
 
band    11 # energy   11.92176710 # occ.  0.00000000
 
ion      s     py     pz     px    dxy    dyz    dz2    dxz  x2-y2    tot
    1  0.024  0.038  0.000  0.113  0.071  0.000  0.168  0.000  0.024  0.436
    2  0.024  0.038  0.000  0.113  0.071  0.000  0.168  0.000  0.024  0.436
tot    0.047  0.075  0.000  0.226  0.142  0.000  0.336  0.000  0.047  0.873
 
band    12 # energy   13.98644164 # occ.  0.00000000
 
ion      s     py     pz     px    dxy    dyz    dz2    dxz  x2-y2    tot
    1  0.102  0.034  0.000  0.101  0.081  0.000  0.102  0.000  0.027  0.445
    2  0.102  0.034  0.000  0.101  0.081  0.000  0.102  0.000  0.027  0.445
tot    0.203  0.067  0.000  0.201  0.161  0.000  0.204  0.000  0.054  0.890
 
band    13 # energy   20.33855245 # occ.  0.00000000
 
ion      s     py     pz     px    dxy    dyz    dz2    dxz  x2-y2    tot
    1  0.000  0.000  0.284  0.000  0.000  0.031  0.000  0.093  0.000  0.408
    2  0.000  0.000  0.284  0.000  0.000  0.031  0.000  0.093  0.000  0.408
tot    0.000  0.000  0.568  0.000  0.000  0.062  0.000  0.186  0.000  0.815
 
band    14 # energy   21.02850607 # occ.  0.00000000
 
ion      s     py     pz     px    dxy    dyz    dz2    dxz  x2-y2    tot
    1  0.134  0.045  0.000  0.135  0.054  0.000  0.002  0.000  0.018  0.388
    2  0.134  0.045  0.000  0.135  0.054  0.000  0.002  0.000  0.018  0.388
tot    0.269  0.090  0.000  0.270  0.108  0.000  0.003  0.000  0.036  0.776
 
band    15 # energy   23.41866078 # occ.  0.00000000
 
ion      s     py     pz     px    dxy    dyz    dz2    dxz  x2-y2    tot
    1  0.000  0.000  0.089  0.000  0.000  0.076  0.000  0.227  0.000  0.391
    2  0.000  0.000  0.089  0.000  0.000  0.076  0.000  0.227  0.000  0.391
tot    0.000  0.000  0.177  0.000  0.000  0.151  0.000  0.454  0.000  0.783
 
band    16 # energy   24.72851547 # occ.  0.00000000
 
ion      s     py     pz     px    dxy    dyz    dz2    dxz  x2-y2    tot
    1  0.186  0.013  0.000  0.038  0.111  0.000  0.044  0.000  0.037  0.428
    2  0.186  0.013  0.000  0.038  0.111  0.000  0.044  0.000  0.037  0.428
tot    0.372  0.025  0.000  0.076  0.222  0.000  0.087  0.000  0.074  0.857
 

 k-point     5 :    0.16666667 0.16666667 0.00000000     weight = 0.04166667

band     1 # energy    4.16715089 # occ.  1.00000000
 
ion      s     py     pz     px    dxy    dyz    dz2    dxz  x2-y2    tot
    1  0.263  0.000  0.000  0.080  0.001  0.000  0.011  0.000  0.025  0.379
    2  0.263  0.000  0.000  0.080  0.001  0.000  0.011  0.000  0.025  0.379
tot    0.527  0.000  0.000  0.160  0.001  0.000  0.021  0.000  0.049  0.758
 
band     2 # energy    6.42944269 # occ.  1.00000000
 
ion      s     py     pz     px    dxy    dyz    dz2    dxz  x2-y2    tot
    1  0.014  0.002  0.000  0.030  0.084  0.000  0.299  0.000  0.032  0.462
    2  0.014  0.002  0.000  0.030  0.084  0.000  0.299  0.000  0.032  0.462
tot    0.029  0.005  0.000  0.061  0.168  0.000  0.597  0.000  0.065  0.924
 
band     3 # energy    6.77535898 # occ.  1.00000000
 
ion      s     py     pz     px    dxy    dyz    dz2    dxz  x2-y2    tot
    1  0.000  0.000  0.049  0.000  0.000  0.063  0.000  0.335  0.000  0.446
    2  0.000  0.000  0.049  0.000  0.000  0.063  0.000  0.335  0.000  0.446
tot    0.000  0.000  0.097  0.000  0.000  0.126  0.000  0.670  0.000  0.893
 
band     4 # energy    6.91074446 # occ.  1.00000000
 
ion      s     py     pz     px    dxy    dyz    dz2    dxz  x2-y2    tot
    1  0.000  0.010  0.000  0.003  0.384  0.000  0.064  0.000  0.003  0.465
    2  0.000  0.010  0.000  0.003  0.384  0.000  0.064  0.000  0.003  0.465
tot    0.000  0.021  0.000  0.007  0.768  0.000  0.127  0.000  0.007  0.929
 
band     5 # energy    7.85477760 # occ.  1.00000000
 
ion      s     py     pz     px    dxy    dyz    dz2    dxz  x2-y2    tot
    1  0.000  0.000  0.004  0.000  0.000  0.081  0.000  0.395  0.000  0.480
    2  0.000  0.000  0.004  0.000  0.000  0.081  0.000  0.395  0.000  0.480
tot    0.000  0.000  0.008  0.000  0.000  0.161  0.000  0.791  0.000  0.960
 
band     6 # energy    7.99190083 # occ.  1.00000000
 
ion      s     py     pz     px    dxy    dyz    dz2    dxz  x2-y2    tot
    1  0.012  0.005  0.000  0.002  0.374  0.000  0.051  0.000  0.034  0.478
    2  0.012  0.005  0.000  0.002  0.374  0.000  0.051  0.000  0.034  0.478
tot    0.023  0.011  0.000  0.004  0.749  0.000  0.102  0.000  0.068  0.956
 
band     7 # energy    8.44877545 # occ.  1.00000000
 
ion      s     py     pz     px    dxy    dyz    dz2    dxz  x2-y2    tot
    1  0.000  0.000  0.022  0.000  0.000  0.418  0.000  0.041  0.000  0.481
    2  0.000  0.000  0.022  0.000  0.000  0.418  0.000  0.041  0.000  0.481
tot    0.000  0.000  0.045  0.000  0.000  0.836  0.000  0.082  0.000  0.962
 
band     8 # energy    8.69643392 # occ.  1.00000000
 
ion      s     py     pz     px    dxy    dyz    dz2    dxz  x2-y2    tot
    1  0.000  0.001  0.000  0.000  0.065  0.000  0.342  0.000  0.080  0.488
    2  0.000  0.001  0.000  0.000  0.065  0.000  0.342  0.000  0.080  0.488
tot    0.000  0.002  0.000  0.000  0.131  0.000  0.684  0.000  0.160  0.977
 
band     9 # energy    9.25757502 # occ.  1.00000000
 
ion      s     py     pz     px    dxy    dyz    dz2    dxz  x2-y2    tot
    1  0.000  0.000  0.000  0.006  0.011  0.000  0.055  0.000  0.416  0.488
    2  0.000  0.000  0.000  0.006  0.011  0.000  0.055  0.000  0.416  0.488
tot    0.000  0.000  0.000  0.011  0.021  0.000  0.111  0.000  0.832  0.976
 
band    10 # energy    9.64564307 # occ.  1.00000000
 
ion      s     py     pz     px    dxy    dyz    dz2    dxz  x2-y2    tot
    1  0.012  0.000  0.000  0.014  0.005  0.000  0.070  0.000  0.385  0.486
    2  0.012  0.000  0.000  0.014  0.005  0.000  0.070  0.000  0.385  0.486
tot    0.025  0.001  0.000  0.027  0.010  0.000  0.141  0.000  0.769  0.973
 
band    11 # energy    9.86518223 # occ.  1.00000000
 
ion      s     py     pz     px    dxy    dyz    dz2    dxz  x2-y2    tot
    1  0.000  0.000  0.000  0.000  0.000  0.410  0.000  0.085  0.000  0.495
    2  0.000  0.000  0.000  0.000  0.000  0.410  0.000  0.085  0.000  0.495
tot    0.000  0.000  0.000  0.000  0.000  0.820  0.000  0.169  0.000  0.989
 
band    12 # energy   15.91292848 # occ.  0.00000000
 
ion      s     py     pz     px    dxy    dyz    dz2    dxz  x2-y2    tot
    1  0.000  0.000  0.241  0.000  0.000  0.004  0.000  0.169  0.000  0.415
    2  0.000  0.000  0.241  0.000  0.000  0.004  0.000  0.169  0.000  0.415
tot    0.000  0.000  0.482  0.000  0.000  0.009  0.000  0.338  0.000  0.830
 
band    13 # energy   17.76448684 # occ.  0.00000000
 
ion      s     py     pz     px    dxy    dyz    dz2    dxz  x2-y2    tot
    1  0.149  0.000  0.000  0.117  0.000  0.000  0.160  0.000  0.006  0.433
    2  0.149  0.000  0.000  0.117  0.000  0.000  0.160  0.000  0.006  0.433
tot    0.299  0.000  0.000  0.235  0.000  0.000  0.320  0.000  0.012  0.866
 
band    14 # energy   23.55038109 # occ.  0.00000000
 
ion      s     py     pz     px    dxy    dyz    dz2    dxz  x2-y2    tot
    1  0.027  0.137  0.000  0.038  0.163  0.000  0.017  0.000  0.005  0.388
    2  0.027  0.137  0.000  0.038  0.163  0.000  0.017  0.000  0.005  0.388
tot    0.054  0.274  0.000  0.077  0.326  0.000  0.034  0.000  0.011  0.775
 
band    15 # energy   24.04250419 # occ.  0.00000000
 
ion      s     py     pz     px    dxy    dyz    dz2    dxz  x2-y2    tot
    1  0.125  0.057  0.000  0.105  0.073  0.000  0.021  0.000  0.019  0.400
    2  0.125  0.057  0.000  0.105  0.073  0.000  0.021  0.000  0.019  0.400
tot    0.251  0.113  0.000  0.211  0.145  0.000  0.042  0.000  0.038  0.799
 
band    16 # energy   30.83241127 # occ.  0.00000000
 
ion      s     py     pz     px    dxy    dyz    dz2    dxz  x2-y2    tot
    1  0.000  0.000  0.033  0.000  0.000  0.122  0.000  0.071  0.000  0.227
    2  0.000  0.000  0.033  0.000  0.000  0.122  0.000  0.071  0.000  0.227
tot    0.000  0.000  0.066  0.000  0.000  0.244  0.000  0.143  0.000  0.453
 

 k-point     6 :    0.33333333 0.16666667 0.00000000     weight = 0.08333333

band     1 # energy    5.96715771 # occ.  1.00000000
 
ion      s     py     pz     px    dxy    dyz    dz2    dxz  x2-y2    tot
    1  0.094  0.003  0.000  0.060  0.115  0.000  0.058  0.000  0.102  0.432
    2  0.094  0.003  0.000  0.060  0.115  0.000  0.058  0.000  0.102  0.432
tot    0.189  0.006  0.000  0.120  0.230  0.000  0.117  0.000  0.203  0.864
 
band     2 # energy    6.17786888 # occ.  1.00000000
 
ion      s     py     pz     px    dxy    dyz    dz2    dxz  x2-y2    tot
    1  0.000  0.000  0.016  0.000  0.000  0.103  0.000  0.332  0.000  0.450
    2  0.000  0.000  0.016  0.000  0.000  0.103  0.000  0.332  0.000  0.450
tot    0.000  0.000  0.031  0.000  0.000  0.205  0.000  0.665  0.000  0.901