<?xml version="1.0" encoding="ISO-8859-1"?>
<modeling>
 <generator>
  <i name="program" type="string">vasp </i>
  <i name="version" type="string">6.3.2  </i>
  <i name="subversion" type="string">27Jun22 (build Aug 12 2022 00:53:59) complex                          parallel </i>
  <i name="platform" type="string">tv2STD </i>
  <i name="date" type="string">2024 11 30 </i>
  <i name="time" type="string">15:35:36 </i>
 </generator>
 <incar>
  <i type="string" name="SYSTEM">Co-hcc</i>
  <i type="int" name="ISTART">     0</i>
  <i type="string" name="PREC">Accurate      normal | accurate</i>
  <i type="string" name="ALGO">Normal     Normal, Fast, Very_Fast</i>
  <i type="logical" name="ADDGRID"> F  </i>
  <i type="int" name="ISPIN">     2</i>
  <i type="int" name="ICHARG">     2</i>
  <i type="int" name="INIWAV">     1</i>
  <i type="int" name="NELM">   100</i>
  <i type="int" name="IBRION">    -1</i>
  <i name="EDIFF">      0.00000100</i>
  <i name="EDIFFG">     -0.02000000</i>
  <i type="int" name="NSW">     0</i>
  <i type="int" name="ISIF">     2</i>
  <i type="int" name="ISYM">     1</i>
  <i name="ENCUT">    400.00000000</i>
  <v name="MAGMOM">      3.00000000      3.00000000</v>
  <i type="logical" name="LREAL"> F  </i>
  <i type="int" name="ISMEAR">     0</i>
  <i name="SIGMA">      0.05000000</i>
  <i type="int" name="NWRITE">     2</i>
  <i type="logical" name="LWAVE"> F  </i>
  <i type="logical" name="LCHARG"> F  </i>
 </incar>
 <primitive_cell>
  <structure name="primitive_cell" >
   <crystal>
    <varray name="basis" >
     <v>       2.47000000       0.00000000       0.00000000 </v>
     <v>      -1.23500000       2.13908275       0.00000000 </v>
     <v>       0.00000000       0.00000000       8.09000000 </v>
    </varray>
    <i name="volume">     42.74379318 </i>
    <varray name="rec_basis" >
     <v>       0.40485830       0.23374505       0.00000000 </v>
     <v>       0.00000000       0.46749010       0.00000000 </v>
     <v>       0.00000000       0.00000000       0.12360939 </v>
    </varray>
   </crystal>
   <varray name="positions" >
    <v>       0.00000000       0.00000000       0.00000000 </v>
    <v>       0.33333333       0.66666667       0.50000000 </v>
   </varray>
  </structure>
  <varray name="primitive_index" >
   <v type="int" >        1 </v>
   <v type="int" >        2 </v>
  </varray>
 </primitive_cell>
 <kpoints>
  <generation param="Gamma">
   <v type="int" name="divisions">       6        6        4 </v>
   <v name="usershift">      0.00000000       0.00000000       0.00000000 </v>
   <v name="genvec1">      0.16666667       0.00000000       0.00000000 </v>
   <v name="genvec2">      0.00000000       0.16666667       0.00000000 </v>
   <v name="genvec3">      0.00000000       0.00000000       0.25000000 </v>
   <v name="shift">      0.00000000       0.00000000       0.00000000 </v>
  </generation>
  <varray name="kpointlist" >
   <v>       0.00000000       0.00000000       0.00000000 </v>
   <v>       0.16666667      -0.00000000       0.00000000 </v>
   <v>       0.33333333      -0.00000000       0.00000000 </v>
   <v>       0.50000000      -0.00000000       0.00000000 </v>
   <v>       0.16666667       0.16666667       0.00000000 </v>
   <v>       0.33333333       0.16666667       0.00000000 </v>
   <v>       0.33333333       0.33333333       0.00000000 </v>
   <v>       0.00000000       0.00000000       0.25000000 </v>
   <v>       0.16666667      -0.00000000       0.25000000 </v>
   <v>       0.33333333      -0.00000000       0.25000000 </v>
   <v>       0.50000000      -0.00000000       0.25000000 </v>
   <v>       0.16666667       0.16666667       0.25000000 </v>
   <v>       0.33333333       0.16666667       0.25000000 </v>
   <v>       0.33333333       0.33333333       0.25000000 </v>
   <v>       0.00000000       0.00000000       0.50000000 </v>
   <v>       0.16666667      -0.00000000       0.50000000 </v>
   <v>       0.33333333      -0.00000000       0.50000000 </v>
   <v>       0.50000000      -0.00000000       0.50000000 </v>
   <v>       0.16666667       0.16666667       0.50000000 </v>
   <v>       0.33333333       0.16666667       0.50000000 </v>
   <v>       0.33333333       0.33333333       0.50000000 </v>
  </varray>
  <varray name="weights" >
   <v>       0.00694444 </v>
   <v>       0.04166667 </v>
   <v>       0.04166667 </v>
   <v>       0.02083333 </v>
   <v>       0.04166667 </v>
   <v>       0.08333333 </v>
   <v>       0.01388889 </v>
   <v>       0.01388889 </v>
   <v>       0.08333333 </v>
   <v>       0.08333333 </v>
   <v>       0.04166667 </v>
   <v>       0.08333333 </v>
   <v>       0.16666667 </v>
   <v>       0.02777778 </v>
   <v>       0.00694444 </v>
   <v>       0.04166667 </v>
   <v>       0.04166667 </v>
   <v>       0.02083333 </v>
   <v>       0.04166667 </v>
   <v>       0.08333333 </v>
   <v>       0.01388889 </v>
  </varray>
 </kpoints>
 <parameters>
  <separator name="general" >
   <i type="string" name="SYSTEM">Co-hcc</i>
   <i type="logical" name="LCOMPAT"> F  </i>
  </separator>
  <separator name="electronic" >
   <i type="string" name="PREC">accura</i>
   <i name="ENMAX">    400.00000000</i>
   <i name="ENAUG">    477.81800000</i>
   <i name="EDIFF">      0.00000100</i>
   <i type="int" name="IALGO">    38</i>
   <i type="int" name="IWAVPR">    10</i>
   <i type="int" name="NBANDS">    16</i>
   <i type="int" name="NBANDSLOW">    -1</i>
   <i type="int" name="NBANDSHIGH">    -1</i>
   <i name="NELECT">     18.00000000</i>
   <i type="int" name="TURBO">     0</i>
   <i type="int" name="IRESTART">     0</i>
   <i type="int" name="NREBOOT">     0</i>
   <i type="int" name="NMIN">     0</i>
   <i name="EREF">      0.00000000</i>
   <separator name="electronic smearing" >
    <i type="int" name="ISMEAR">     0</i>
    <i name="SIGMA">      0.05000000</i>
    <i name="KSPACING">      0.50000000</i>
    <i type="logical" name="KGAMMA"> T  </i>
    <i type="logical" name="KBLOWUP"> T  </i>
   </separator>
   <separator name="electronic projectors" >
    <i type="logical" name="LREAL"> F  </i>
    <v name="ROPT">      0.00000000</v>
    <i type="int" name="LMAXPAW">  -100</i>
    <i type="int" name="LMAXMIX">     2</i>
    <i type="logical" name="NLSPLINE"> F  </i>
   </separator>
   <separator name="electronic startup" >
    <i type="int" name="ISTART">     0</i>
    <i type="int" name="ICHARG">     2</i>
    <i type="int" name="INIWAV">     1</i>
   </separator>
   <separator name="electronic spin" >
    <i type="int" name="ISPIN">     2</i>
    <i type="logical" name="LNONCOLLINEAR"> F  </i>
    <v name="MAGMOM">      3.00000000      3.00000000</v>
    <i name="NUPDOWN">     -1.00000000</i>
    <i type="logical" name="LSORBIT"> F  </i>
    <v name="SAXIS">      0.00000000      0.00000000      1.00000000</v>
    <i type="logical" name="LSPIRAL"> F  </i>
    <v name="QSPIRAL">      0.00000000      0.00000000      0.00000000</v>
    <i type="logical" name="LZEROZ"> F  </i>
   </separator>
   <separator name="electronic exchange-correlation" >
    <i type="logical" name="LASPH"> F  </i>
    <i type="logical" name="LMETAGGA"> F  </i>
   </separator>
   <separator name="electronic convergence" >
    <i type="int" name="NELM">   100</i>
    <i type="int" name="NELMDL">    -5</i>
    <i type="int" name="NELMIN">     2</i>
    <i name="ENINI">    400.00000000</i>
    <separator name="electronic convergence detail" >
     <i type="logical" name="LDIAG"> T  </i>
     <i type="logical" name="LSUBROT"> F  </i>
     <i name="WEIMIN">      0.00000000</i>
     <i name="EBREAK">      0.00000002</i>
     <i name="DEPER">      0.30000000</i>
     <i type="int" name="NRMM">     4</i>
     <i name="TIME">      0.40000000</i>
    </separator>
   </separator>
   <separator name="electronic mixer" >
    <i name="AMIX">      0.40000000</i>
    <i name="BMIX">      1.00000000</i>
    <i name="AMIN">      0.10000000</i>
    <i name="AMIX_MAG">      1.60000000</i>
    <i name="BMIX_MAG">      1.00000000</i>
    <separator name="electronic mixer details" >
     <i type="int" name="IMIX">     4</i>
     <i type="logical" name="MIXFIRST"> F  </i>
     <i type="int" name="MAXMIX">   -45</i>
     <i name="WC">    100.00000000</i>
     <i type="int" name="INIMIX">     1</i>
     <i type="int" name="MIXPRE">     1</i>
     <i type="int" name="MREMOVE">     5</i>
    </separator>
   </separator>
   <separator name="electronic dipolcorrection" >
    <i type="logical" name="LDIPOL"> F  </i>
    <i type="logical" name="LMONO"> F  </i>
    <i type="int" name="IDIPOL">     0</i>
    <i name="EPSILON">      1.00000000</i>
    <v name="DIPOL">   -100.00000000   -100.00000000   -100.00000000</v>
    <i name="EFIELD">      0.00000000</i>
   </separator>
  </separator>
  <separator name="grids" >
   <i type="int" name="NGX">    16</i>
   <i type="int" name="NGY">    16</i>
   <i type="int" name="NGZ">    54</i>
   <i type="int" name="NGXF">    32</i>
   <i type="int" name="NGYF">    32</i>
   <i type="int" name="NGZF">   108</i>
   <i type="logical" name="ADDGRID"> F  </i>
  </separator>
  <separator name="ionic" >
   <i type="int" name="NSW">     0</i>
   <i type="int" name="IBRION">    -1</i>
   <i type="int" name="MDALGO">     0</i>
   <i type="int" name="ISIF">     2</i>
   <i name="PSTRESS">      0.00000000</i>
   <i name="EDIFFG">     -0.02000000</i>
   <i type="int" name="NFREE">     0</i>
   <i name="POTIM">      0.50000000</i>
   <i name="SMASS">     -3.00000000</i>
   <i name="SCALEE">      1.00000000</i>
  </separator>
  <separator name="ionic md" >
   <i name="TEBEG">      0.00010000</i>
   <i name="TEEND">      0.00010000</i>
   <i type="int" name="NBLOCK">     1</i>
   <i type="int" name="KBLOCK">     1</i>
   <i type="int" name="NPACO">   256</i>
   <i name="APACO">     10.00000000</i>
  </separator>
  <separator name="symmetry" >
   <i type="int" name="ISYM">     1</i>
   <i name="SYMPREC">      0.00001000</i>
  </separator>
  <separator name="dos" >
   <i type="int" name="LORBIT">     0</i>
   <v name="RWIGS">     -1.00000000</v>
   <i type="int" name="NEDOS">   301</i>
   <i name="EMIN">     10.00000000</i>
   <i name="EMAX">    -10.00000000</i>
   <i name="EFERMI">      0.00000000</i>
  </separator>
  <separator name="writing" >
   <i type="int" name="NWRITE">     2</i>
   <i type="logical" name="LWAVE"> F  </i>
   <i type="logical" name="LDOWNSAMPLE"> F  </i>
   <i type="logical" name="LCHARG"> F  </i>
   <i type="logical" name="LPARD"> F  </i>
   <i type="logical" name="LVTOT"> F  </i>
   <i type="logical" name="LVHAR"> F  </i>
   <i type="logical" name="LELF"> F  </i>
   <i type="logical" name="LOPTICS"> F  </i>
   <v name="STM">      0.00000000      0.00000000      0.00000000      0.00000000      0.00000000      0.00000000      0.00000000</v>
  </separator>
  <separator name="performance" >
   <i type="int" name="NPAR">     4</i>
   <i type="int" name="NSIM">     4</i>
   <i type="int" name="NBLK">    -1</i>
   <i type="logical" name="LPLANE"> T  </i>
   <i type="logical" name="LSCALAPACK"> T  </i>
   <i type="logical" name="LSCAAWARE"> F  </i>
   <i type="logical" name="LSCALU"> F  </i>
   <i type="logical" name="LASYNC"> F  </i>
   <i type="logical" name="LORBITALREAL"> F  </i>
  </separator>
  <separator name="miscellaneous" >
   <i type="int" name="IDIOT">     3</i>
   <i type="int" name="PHON_NSTRUCT">    -1</i>
   <i type="logical" name="LMUSIC"> F  </i>
   <v name="POMASS">     58.93300000</v>
   <v name="DARWINR">      0.00000000</v>
   <v name="DARWINV">      1.00000000</v>
   <i type="logical" name="LCORR"> T  </i>
  </separator>
  <i type="logical" name="GGA_COMPAT"> T  </i>
  <i type="logical" name="LBERRY"> F  </i>
  <i type="int" name="ICORELEVEL">     0</i>
  <i type="logical" name="LDAU"> F  </i>
  <i type="int" name="I_CONSTRAINED_M">     0</i>
  <separator name="electronic exchange-correlation" >
   <i type="string" name="GGA">--</i>
   <i type="int" name="VOSKOWN">     0</i>
   <i type="logical" name="LHFCALC"> F  </i>
   <i type="string" name="PRECFOCK"></i>
   <i type="logical" name="LSYMGRAD"> F  </i>
   <i type="logical" name="LHFONE"> F  </i>
   <i type="logical" name="LRHFCALC"> F  </i>
   <i type="logical" name="LTHOMAS"> F  </i>
   <i type="logical" name="LMODELHF"> F  </i>
   <i type="logical" name="LFOCKACE"> F  </i>
   <i name="ENCUT4O">     -1.00000000</i>
   <i type="int" name="EXXOEP">     0</i>
   <i type="int" name="FOURORBIT">     0</i>
   <i name="AEXX">      0.00000000</i>
   <i name="HFALPHA">      0.00000000</i>
   <i name="MCALPHA">      0.00000000</i>
   <i name="ALDAX">      1.00000000</i>
   <i name="AGGAX">      1.00000000</i>
   <i name="ALDAC">      1.00000000</i>
   <i name="AGGAC">      1.00000000</i>
   <i type="int" name="NKREDX">     1</i>
   <i type="int" name="NKREDY">     1</i>
   <i type="int" name="NKREDZ">     1</i>
   <i type="logical" name="SHIFTRED"> F  </i>
   <i type="logical" name="ODDONLY"> F  </i>
   <i type="logical" name="EVENONLY"> F  </i>
   <i type="int" name="LMAXFOCK">     0</i>
   <i type="int" name="NMAXFOCKAE">     0</i>
   <i type="logical" name="LFOCKAEDFT"> F  </i>
   <i name="HFSCREEN">      0.00000000</i>
   <i name="HFSCREENC">      0.00000000</i>
   <i type="int" name="NBANDSGWLOW">     0</i>
  </separator>
  <separator name="vdW DFT" >
   <i type="logical" name="LUSE_VDW"> F  </i>
   <i name="Zab_VDW">     -0.84910000</i>
   <i name="PARAM1">      0.12340000</i>
   <i name="PARAM2">      1.00000000</i>
   <i name="PARAM3">      0.00000000</i>
  </separator>
  <separator name="model GW" >
   <i type="int" name="MODEL_GW">     0</i>
   <i name="MODEL_EPS0">     12.82313795</i>
   <i name="MODEL_ALPHA">      1.00000000</i>
  </separator>
  <separator name="linear response parameters" >
   <i type="logical" name="LEPSILON"> F  </i>
   <i type="logical" name="LRPA"> F  </i>
   <i type="logical" name="LNABLA"> F  </i>
   <i type="logical" name="LVEL"> F  </i>
   <i name="CSHIFT">      0.10000000</i>
   <i name="OMEGAMAX">     -1.00000000</i>
   <i name="DEG_THRESHOLD">      0.00200000</i>
   <i name="RTIME">     -0.10000000</i>
   <i name="WPLASMAI">      0.00000000</i>
   <v name="DFIELD">      0.00000000      0.00000000      0.00000000</v>
   <v name="WPLASMA">      0.00000000      0.00000000      0.00000000      0.00000000      0.00000000      0.00000000      0.00000000      0.00000000      0.00000000</v>
  </separator>
  <separator name="orbital magnetization" >
   <i type="logical" name="NUCIND"> F  </i>
   <v name="MAGPOS">      0.00000000      0.00000000      0.00000000</v>
   <i type="logical" name="LNICSALL"> T  </i>
   <i type="logical" name="ORBITALMAG"> F  </i>
   <i type="logical" name="LMAGBLOCH"> F  </i>
   <i type="logical" name="LCHIMAG"> F  </i>
   <i type="logical" name="LGAUGE"> T  </i>
   <i type="int" name="MAGATOM">     0</i>
   <v name="MAGDIPOL">      0.00000000      0.00000000      0.00000000</v>
   <v name="AVECCONST">      0.00000000      0.00000000      0.00000000</v>
  </separator>
  <separator name="response functions" >
   <i type="logical" name="LFINITE_TEMPERATURE"> F  </i>
   <i type="logical" name="LADDER"> F  </i>
   <i type="logical" name="LRPAFORCE"> F  </i>
   <i type="logical" name="LFXC"> F  </i>
   <i type="logical" name="LHARTREE"> T  </i>
   <i type="int" name="IBSE">     0</i>
   <v type="int" name="KPOINT">    -1     0     0     0</v>
   <i type="logical" name="LTCTC"> F  </i>
   <i type="logical" name="LTCTE"> F  </i>
   <i type="logical" name="LTETE"> F  </i>
   <i type="logical" name="LTRIPLET"> F  </i>
   <i type="logical" name="LFXCEPS"> F  </i>
   <i type="logical" name="LFXHEG"> F  </i>
   <i type="int" name="NATURALO">     2</i>
   <i type="logical" name="LHOLEGF"> F  </i>
   <i type="logical" name="L2ORDER"> F  </i>
   <i type="logical" name="LDMP1"> F  </i>
   <i type="logical" name="LMP2LT"> F  </i>
   <i type="logical" name="LSMP2LT"> F  </i>
   <i type="logical" name="LGWLF"> F  </i>
   <i name="ENCUTGW">     -2.00000000</i>
   <i name="ENCUTGWSOFT">     -2.00000000</i>
   <i name="ENCUTLF">     -1.00000000</i>
   <i type="logical" name="LESF_SPLINES"> F  </i>
   <i type="int" name="LMAXMP2">    -1</i>
   <i name="SCISSOR">      0.00000000</i>
   <i type="int" name="NOMEGA">     0</i>
   <i type="int" name="NOMEGAR">     0</i>
   <i type="int" name="NBANDSGW">    -1</i>
   <i type="int" name="NBANDSO">    -1</i>
   <i type="int" name="NBANDSV">    -1</i>
   <i type="int" name="NELMGW">     1</i>
   <i type="int" name="NELMHF">     1</i>
   <i type="int" name="DIM">     3</i>
   <i type="int" name="IESPILON">     4</i>
   <i type="int" name="ANTIRES">     0</i>
   <i name="OMEGAMAX">    -30.00000000</i>
   <i name="OMEGAMIN">    -30.00000000</i>
   <i name="OMEGATL">   -200.00000000</i>
   <i type="int" name="OMEGAGRID">     0</i>
   <i name="CSHIFT">     -0.10000000</i>
   <i type="logical" name="LSELFENERGY"> F  </i>
   <i type="logical" name="LSPECTRAL"> F  </i>
   <i type="logical" name="LSPECTRALGW"> F  </i>
   <i type="logical" name="LSINGLES"> F  </i>
   <i type="logical" name="LFERMIGW"> F  </i>
   <i type="logical" name="ODDONLYGW"> F  </i>
   <i type="logical" name="EVENONLYGW"> F  </i>
   <i type="int" name="NKREDLFX">     1</i>
   <i type="int" name="NKREDLFY">     1</i>
   <i type="int" name="NKREDLFZ">     1</i>
   <i type="int" name="MAXMEM">  2800</i>
   <i type="int" name="TELESCOPE">     0</i>
   <i type="int" name="NTAUPAR">    -1</i>
   <i type="int" name="NOMEGAPAR">    -1</i>
   <i name="DAMP_NEWTON">      0.80000001</i>
   <i name="LAMBDA">      1.00000000</i>
  </separator>
  <separator name="External order field" >
   <i name="OFIELD_KAPPA">      0.00000000</i>
   <v name="OFIELD_K">      0.00000000      0.00000000      0.00000000</v>
   <i name="OFIELD_Q6_NEAR">      0.00000000</i>
   <i name="OFIELD_Q6_FAR">      0.00000000</i>
   <i name="OFIELD_A">      0.00000000</i>
  </separator>
  <separator name="optional k-points parameters" >
   <i type="int" name="KPOINTS_OPT_MODE">     1</i>
   <i type="logical" name="LKPOINTS_OPT"> F  </i>
  </separator>
 </parameters>
 <atominfo>
  <atoms>       2 </atoms>
  <types>       1 </types>
  <array name="atoms" >
   <dimension dim="1">ion</dimension>
   <field type="string">element</field>
   <field type="int">atomtype</field>
   <set>
    <rc><c>Co</c><c>   1</c></rc>
    <rc><c>Co</c><c>   1</c></rc>
   </set>
  </array>
  <array name="atomtypes" >
   <dimension dim="1">type</dimension>
   <field type="int">atomspertype</field>
   <field type="string">element</field>
   <field>mass</field>
   <field>valence</field>
   <field type="string">pseudopotential</field>
   <set>
    <rc><c>   2</c><c>Co</c><c>     58.93300000</c><c>      9.00000000</c><c>  PAW_PBE Co 02Aug2007                  </c></rc>
   </set>
  </array>
 </atominfo>
 <structure name="initialpos" >
  <crystal>
   <varray name="basis" >
    <v>       2.47000000       0.00000000       0.00000000 </v>
    <v>      -1.23500000       2.13908275       0.00000000 </v>
    <v>       0.00000000       0.00000000       8.09000000 </v>
   </varray>
   <i name="volume">     42.74379318 </i>
   <varray name="rec_basis" >
    <v>       0.40485830       0.23374505       0.00000000 </v>
    <v>       0.00000000       0.46749010       0.00000000 </v>
    <v>       0.00000000       0.00000000       0.12360939 </v>
   </varray>
  </crystal>
  <varray name="positions" >
   <v>       0.00000000       0.00000000       0.00000000 </v>
   <v>       0.33333333       0.66666667       0.50000000 </v>
  </varray>
 </structure>
 <calculation>
  <scstep>
   <time name="dav">    0.14    0.14</time>
   <time name="total">    0.16    0.16</time>
   <energy>
    <i name="alphaZ">     39.63868225 </i>
    <i name="ewald">  -1054.56880693 </i>
    <i name="hartreedc">   -595.60964206 </i>
    <i name="XCdc">     33.36921587 </i>
    <i name="pawpsdc">   1439.98163886 </i>
    <i name="pawaedc">  -1545.88690193 </i>
    <i name="eentropy">     -0.00407067 </i>
    <i name="bandstr">    133.28116142 </i>
    <i name="atom">   1626.71546820 </i>
    <i name="e_fr_energy">     76.91674501 </i>
    <i name="e_wo_entrp">     76.92081568 </i>
    <i name="e_0_energy">     76.91878035 </i>
   </energy>
  </scstep>
  <scstep>
   <time name="dav">    0.13    0.14</time>
   <time name="total">    0.14    0.14</time>
   <energy>
    <i name="e_fr_energy">    -10.65649147 </i>
    <i name="e_wo_entrp">    -10.65014255 </i>
    <i name="e_0_energy">    -10.65331701 </i>
   </energy>
  </scstep>
  <scstep>
   <time name="dav">    0.16    0.16</time>
   <time name="total">    0.16    0.16</time>
   <energy>
    <i name="e_fr_energy">    -12.72357813 </i>
    <i name="e_wo_entrp">    -12.71907947 </i>
    <i name="e_0_energy">    -12.72132880 </i>
   </energy>
  </scstep>
  <scstep>
   <time name="dav">    0.17    0.17</time>
   <time name="total">    0.17    0.17</time>
   <energy>
    <i name="e_fr_energy">    -12.75752879 </i>
    <i name="e_wo_entrp">    -12.75307057 </i>
    <i name="e_0_energy">    -12.75529968 </i>
   </energy>
  </scstep>
  <scstep>
   <time name="dav">    0.15    0.15</time>
   <time name="total">    0.17    0.18</time>
   <energy>
    <i name="e_fr_energy">    -12.75776293 </i>
    <i name="e_wo_entrp">    -12.75330240 </i>
    <i name="e_0_energy">    -12.75553266 </i>
   </energy>
  </scstep>
  <scstep>
   <time name="dav">    0.14    0.14</time>
   <time name="total">    0.18    0.18</time>
   <energy>
    <i name="e_fr_energy">    -12.73424017 </i>
    <i name="e_wo_entrp">    -12.72535835 </i>
    <i name="e_0_energy">    -12.72979926 </i>
   </energy>
  </scstep>
  <scstep>
   <time name="dav">    0.15    0.15</time>
   <time name="total">    0.18    0.18</time>
   <energy>
    <i name="e_fr_energy">    -11.20003328 </i>
    <i name="e_wo_entrp">    -11.19095082 </i>
    <i name="e_0_energy">    -11.19549205 </i>
   </energy>
  </scstep>
  <scstep>
   <time name="dav">    0.15    0.16</time>
   <time name="total">    0.19    0.19</time>
   <energy>
    <i name="e_fr_energy">    -11.22945273 </i>
    <i name="e_wo_entrp">    -11.22627750 </i>
    <i name="e_0_energy">    -11.22786511 </i>
   </energy>
  </scstep>
  <scstep>
   <time name="dav">    0.17    0.17</time>
   <time name="total">    0.20    0.20</time>
   <energy>
    <i name="e_fr_energy">    -11.23836048 </i>
    <i name="e_wo_entrp">    -11.23198376 </i>
    <i name="e_0_energy">    -11.23517212 </i>
   </energy>
  </scstep>
  <scstep>
   <time name="dav">    0.15    0.15</time>
   <time name="total">    0.18    0.19</time>
   <energy>
    <i name="e_fr_energy">    -11.24608722 </i>
    <i name="e_wo_entrp">    -11.23749157 </i>
    <i name="e_0_energy">    -11.24178940 </i>
   </energy>
  </scstep>
  <scstep>
   <time name="dav">    0.15    0.15</time>
   <time name="total">    0.19    0.19</time>
   <energy>
    <i name="e_fr_energy">    -11.24073804 </i>
    <i name="e_wo_entrp">    -11.23508090 </i>
    <i name="e_0_energy">    -11.23790947 </i>
   </energy>
  </scstep>
  <scstep>
   <time name="dav">    0.15    0.15</time>
   <time name="total">    0.18    0.18</time>
   <energy>
    <i name="e_fr_energy">    -11.23988691 </i>
    <i name="e_wo_entrp">    -11.23409157 </i>
    <i name="e_0_energy">    -11.23698924 </i>
   </energy>
  </scstep>
  <scstep>
   <time name="dav">    0.15    0.15</time>
   <time name="total">    0.18    0.18</time>
   <energy>
    <i name="e_fr_energy">    -11.24038251 </i>
    <i name="e_wo_entrp">    -11.23456744 </i>
    <i name="e_0_energy">    -11.23747498 </i>
   </energy>
  </scstep>
  <scstep>
   <time name="dav">    0.15    0.15</time>
   <time name="total">    0.18    0.18</time>
   <energy>
    <i name="e_fr_energy">    -11.24049636 </i>
    <i name="e_wo_entrp">    -11.23466885 </i>
    <i name="e_0_energy">    -11.23758261 </i>
   </energy>
  </scstep>
  <scstep>
   <time name="dav">    0.15    0.15</time>
   <time name="total">    0.18    0.18</time>
   <energy>
    <i name="e_fr_energy">    -11.24049869 </i>
    <i name="e_wo_entrp">    -11.23469326 </i>
    <i name="e_0_energy">    -11.23759597 </i>
   </energy>
  </scstep>
  <scstep>
   <time name="dav">    0.14    0.14</time>
   <time name="total">    0.17    0.17</time>
   <energy>
    <i name="e_fr_energy">    -11.24050524 </i>
    <i name="e_wo_entrp">    -11.23469941 </i>
    <i name="e_0_energy">    -11.23760233 </i>
   </energy>
  </scstep>
  <scstep>
   <time name="dav">    0.10    0.10</time>
   <time name="total">    0.11    0.11</time>
   <energy>
    <i name="alphaZ">     39.63868225 </i>
    <i name="ewald">  -1054.56880693 </i>
    <i name="hartreedc">   -566.37653344 </i>
    <i name="XCdc">     31.44746225 </i>
    <i name="pawpsdc">   1612.56599938 </i>
    <i name="pawaedc">  -1718.50654837 </i>
    <i name="eentropy">     -0.00580148 </i>
    <i name="bandstr">     17.84957317 </i>
    <i name="atom">   1626.71546820 </i>
    <i name="e_fr_energy">    -11.24050497 </i>
    <i name="e_wo_entrp">    -11.23470349 </i>
    <i name="e_0_energy">    -11.23760423 </i>
   </energy>
  </scstep>
  <structure>
   <crystal>
    <varray name="basis" >
     <v>       2.47000000       0.00000000       0.00000000 </v>
     <v>      -1.23500000       2.13908275       0.00000000 </v>
     <v>       0.00000000       0.00000000       8.09000000 </v>
    </varray>
    <i name="volume">     42.74379318 </i>
    <varray name="rec_basis" >
     <v>       0.40485830       0.23374505       0.00000000 </v>
     <v>       0.00000000       0.46749010       0.00000000 </v>
     <v>       0.00000000       0.00000000       0.12360939 </v>
    </varray>
   </crystal>
   <varray name="positions" >
    <v>       0.00000000       0.00000000       0.00000000 </v>
    <v>       0.33333333       0.66666667       0.50000000 </v>
   </varray>
  </structure>
  <varray name="forces" >
   <v>      -0.00000000       0.00000000       0.00000000 </v>
   <v>       0.00000000      -0.00000000       0.00000000 </v>
  </varray>
  <varray name="stress" >
   <v>    -112.57667477       0.00000000       0.00000000 </v>
   <v>      -0.00000000    -112.57667477       0.00000000 </v>
   <v>       0.00000000       0.00000000     -46.71266780 </v>
  </varray>
  <energy>
   <i name="e_fr_energy">    -11.24050497 </i>
   <i name="e_wo_entrp">    -11.23470349 </i>
   <i name="e_0_energy">    -11.23760423 </i>
  </energy>
  <time name="totalsc">    3.02    3.04</time>
  <eigenvalues>
   <array>
    <dimension dim="1">band</dimension>
    <dimension dim="2">kpoint</dimension>
    <dimension dim="3">spin</dimension>
    <field>eigene</field>
    <field>occ</field>
    <set>
     <set comment="spin 1">
      <set comment="kpoint 1">
       <r>   -3.0141    1.0000 </r>
       <r>   -2.5563    1.0000 </r>
       <r>   -0.2831    1.0000 </r>
       <r>    0.7078    1.0000 </r>
       <r>    0.7078    1.0000 </r>
       <r>    0.7087    1.0000 </r>
       <r>    0.7087    1.0000 </r>
       <r>    0.7396    1.0000 </r>
       <r>    1.4099    1.0000 </r>
       <r>    1.4099    1.0000 </r>
       <r>    1.4127    1.0000 </r>
       <r>    1.4127    1.0000 </r>
       <r>    2.1439    1.0000 </r>
       <r>    6.4146    0.0000 </r>
       <r>   10.8506    0.0000 </r>
       <r>   18.8016    0.0000 </r>
      </set>
      <set comment="kpoint 2">
       <r>   -2.0487    1.0000 </r>
       <r>   -1.6593    1.0000 </r>
       <r>    0.0088    1.0000 </r>
       <r>    0.4698    1.0000 </r>
       <r>    0.4785    1.0000 </r>
       <r>    0.5130    1.0000 </r>
       <r>    0.7898    1.0000 </r>
       <r>    1.0023    1.0000 </r>
       <r>    1.1177    1.0000 </r>
       <r>    1.1186    1.0000 </r>
       <r>    1.3293    1.0000 </r>
       <r>    1.3354    1.0000 </r>
       <r>    3.7319    0.0000 </r>
       <r>    7.8488    0.0000 </r>
       <r>   11.4758    0.0000 </r>
       <r>   19.9438    0.0000 </r>
      </set>
      <set comment="kpoint 3">
       <r>   -0.9143    1.0000 </r>
       <r>   -0.8650    1.0000 </r>
       <r>   -0.2110    1.0000 </r>
       <r>   -0.0522    1.0000 </r>
       <r>    0.6285    1.0000 </r>
       <r>    0.7894    1.0000 </r>
       <r>    1.1716    1.0000 </r>
       <r>    1.1820    1.0000 </r>
       <r>    1.7632    1.0000 </r>
       <r>    2.0163    1.0000 </r>
       <r>    2.0169    1.0000 </r>
       <r>    2.6953    1.0000 </r>
       <r>    6.7063    0.0000 </r>
       <r>   11.0756    0.0000 </r>
       <r>   13.0135    0.0000 </r>
       <r>   14.2149    0.0000 </r>
      </set>
      <set comment="kpoint 4">
       <r>   -1.0541    1.0000 </r>
       <r>   -1.0509    1.0000 </r>
       <r>   -0.4538    1.0000 </r>
       <r>   -0.3879    1.0000 </r>
       <r>    0.9447    1.0000 </r>
       <r>    1.0390    1.0000 </r>
       <r>    1.0939    1.0000 </r>
       <r>    1.1064    1.0000 </r>
       <r>    2.5154    1.0000 </r>
       <r>    2.5156    1.0000 </r>
       <r>    5.2280    0.0000 </r>
       <r>    5.5800    0.0000 </r>
       <r>    9.2178    0.0000 </r>
       <r>   10.0343    0.0000 </r>
       <r>   10.4504    0.0000 </r>
       <r>   11.5849    0.0000 </r>
      </set>
      <set comment="kpoint 5">
       <r>   -0.5386    1.0000 </r>
       <r>   -0.4001    1.0000 </r>
       <r>    0.0042    1.0000 </r>
       <r>    0.0957    1.0000 </r>
       <r>    0.0996    1.0000 </r>
       <r>    0.2113    1.0000 </r>
       <r>    0.5249    1.0000 </r>
       <r>    1.1154    1.0000 </r>
       <r>    1.1231    1.0000 </r>
       <r>    1.2240    1.0000 </r>
       <r>    2.1791    1.0000 </r>
       <r>    2.5695    1.0000 </r>
       <r>    5.8085    0.0000 </r>
       <r>   10.1517    0.0000 </r>
       <r>   12.7810    0.0000 </r>
       <r>   18.2641    0.0000 </r>
      </set>
      <set comment="kpoint 6">
       <r>   -0.4842    1.0000 </r>
       <r>   -0.4776    1.0000 </r>
       <r>   -0.2528    1.0000 </r>
       <r>   -0.1650    1.0000 </r>
       <r>    0.8264    1.0000 </r>
       <r>    0.8334    1.0000 </r>
       <r>    0.8398    1.0000 </r>
       <r>    0.8813    1.0000 </r>
       <r>    1.3528    1.0000 </r>
       <r>    1.5166    1.0000 </r>
       <r>    5.1525    0.0000 </r>
       <r>    5.9688    0.0000 </r>
       <r>    9.4088    0.0000 </r>
       <r>   11.3228    0.0000 </r>
       <r>   12.3432    0.0000 </r>
       <r>   13.4112    0.0000 </r>
      </set>
      <set comment="kpoint 7">
       <r>    0.1623    1.0000 </r>
       <r>    0.1989    1.0000 </r>
       <r>    0.1989    1.0000 </r>
       <r>    0.2377    1.0000 </r>
       <r>    0.4339    1.0000 </r>
       <r>    0.4493    1.0000 </r>
       <r>    0.4493    1.0000 </r>
       <r>    0.4702    1.0000 </r>
       <r>    0.9740    1.0000 </r>
       <r>    0.9740    1.0000 </r>
       <r>    9.6773    0.0000 </r>
       <r>    9.9324    0.0000 </r>
       <r>    9.9324    0.0000 </r>
       <r>   10.5794    0.0000 </r>
       <r>   12.0390    0.0000 </r>
       <r>   12.0390    0.0000 </r>
      </set>
      <set comment="kpoint 8">
       <r>   -2.9497    1.0000 </r>
       <r>   -2.6252    1.0000 </r>
       <r>   -0.2177    1.0000 </r>
       <r>    0.3982    1.0000 </r>
       <r>    0.7079    1.0000 </r>
       <r>    0.7079    1.0000 </r>
       <r>    0.7086    1.0000 </r>
       <r>    0.7086    1.0000 </r>
       <r>    1.4103    1.0000 </r>
       <r>    1.4103    1.0000 </r>
       <r>    1.4123    1.0000 </r>
       <r>    1.4123    1.0000 </r>
       <r>    2.8135    1.0000 </r>
       <r>    5.5835    0.0000 </r>
       <r>   11.9504    0.0000 </r>
       <r>   16.8546    0.0000 </r>
      </set>
      <set comment="kpoint 9">
       <r>   -1.9911    1.0000 </r>
       <r>   -1.7145    1.0000 </r>
       <r>    0.0591    1.0000 </r>
       <r>    0.4133    1.0000 </r>
       <r>    0.4782    1.0000 </r>
       <r>    0.4800    1.0000 </r>
       <r>    0.7974    1.0000 </r>
       <r>    0.9116    1.0000 </r>
       <r>    1.1179    1.0000 </r>
       <r>    1.1186    1.0000 </r>
       <r>    1.3303    1.0000 </r>
       <r>    1.3346    1.0000 </r>
       <r>    4.2337    0.0000 </r>
       <r>    6.9164    0.0000 </r>
       <r>   12.6947    0.0000 </r>
       <r>   17.7646    0.0000 </r>
      </set>
      <set comment="kpoint 10">
       <r>   -0.9072    1.0000 </r>
       <r>   -0.8724    1.0000 </r>
       <r>   -0.1937    1.0000 </r>
       <r>   -0.0842    1.0000 </r>
       <r>    0.6676    1.0000 </r>
       <r>    0.7772    1.0000 </r>
       <r>    1.1731    1.0000 </r>
       <r>    1.1805    1.0000 </r>
       <r>    1.8570    1.0000 </r>
       <r>    2.0164    1.0000 </r>
       <r>    2.0168    1.0000 </r>
       <r>    2.5003    1.0000 </r>
       <r>    7.1743    0.0000 </r>
       <r>    9.9043    0.0000 </r>
       <r>   13.9188    0.0000 </r>
       <r>   14.3948    0.0000 </r>
      </set>
      <set comment="kpoint 11">
       <r>   -1.0539    1.0000 </r>
       <r>   -1.0516    1.0000 </r>
       <r>   -0.4455    1.0000 </r>
       <r>   -0.3989    1.0000 </r>
       <r>    0.9614    1.0000 </r>
       <r>    1.0284    1.0000 </r>
       <r>    1.0955    1.0000 </r>
       <r>    1.1044    1.0000 </r>
       <r>    2.5154    1.0000 </r>
       <r>    2.5156    1.0000 </r>
       <r>    5.2703    0.0000 </r>
       <r>    5.5189    0.0000 </r>
       <r>    9.2206    0.0000 </r>
       <r>    9.6287    0.0000 </r>
       <r>   11.0786    0.0000 </r>
       <r>   11.7797    0.0000 </r>
      </set>
      <set comment="kpoint 12">
       <r>   -0.5168    1.0000 </r>
       <r>   -0.4191    1.0000 </r>
       <r>    0.0228    1.0000 </r>
       <r>    0.0962    1.0000 </r>
       <r>    0.0991    1.0000 </r>
       <r>    0.1549    1.0000 </r>
       <r>    0.6461    1.0000 </r>
       <r>    1.1150    1.0000 </r>
       <r>    1.1220    1.0000 </r>
       <r>    1.1317    1.0000 </r>
       <r>    2.2032    1.0000 </r>
       <r>    2.4540    1.0000 </r>
       <r>    6.2902    0.0000 </r>
       <r>    9.0406    0.0000 </r>
       <r>   14.1675    0.0000 </r>
       <r>   18.3420    0.0000 </r>
      </set>
      <set comment="kpoint 13">
       <r>   -0.4836    1.0000 </r>
       <r>   -0.4790    1.0000 </r>
       <r>   -0.2413    1.0000 </r>
       <r>   -0.1796    1.0000 </r>
       <r>    0.8225    1.0000 </r>
       <r>    0.8348    1.0000 </r>
       <r>    0.8503    1.0000 </r>
       <r>    0.8798    1.0000 </r>
       <r>    1.3763    1.0000 </r>
       <r>    1.4928    1.0000 </r>
       <r>    5.2357    0.0000 </r>
       <r>    5.7942    0.0000 </r>
       <r>    9.8400    0.0000 </r>
       <r>   11.3633    0.0000 </r>
       <r>   12.1009    0.0000 </r>
       <r>   12.6703    0.0000 </r>
      </set>
      <set comment="kpoint 14">
       <r>    0.1721    1.0000 </r>
       <r>    0.1974    1.0000 </r>
       <r>    0.1974    1.0000 </r>
       <r>    0.2250    1.0000 </r>
       <r>    0.4409    1.0000 </r>
       <r>    0.4505    1.0000 </r>
       <r>    0.4505    1.0000 </r>
       <r>    0.4661    1.0000 </r>
       <r>    0.9746    1.0000 </r>
       <r>    0.9747    1.0000 </r>
       <r>    9.7813    0.0000 </r>
       <r>    9.9574    0.0000 </r>
       <r>    9.9574    0.0000 </r>
       <r>   10.4072    0.0000 </r>
       <r>   11.7924    0.0000 </r>
       <r>   11.7924    0.0000 </r>
      </set>
      <set comment="kpoint 15">
       <r>   -2.7899    1.0000 </r>
       <r>   -2.7899    1.0000 </r>
       <r>   -0.0006    1.0000 </r>
       <r>   -0.0006    1.0000 </r>
       <r>    0.7081    1.0000 </r>
       <r>    0.7081    1.0000 </r>
       <r>    0.7081    1.0000 </r>
       <r>    0.7081    1.0000 </r>
       <r>    1.4112    1.0000 </r>
       <r>    1.4112    1.0000 </r>
       <r>    1.4112    1.0000 </r>
       <r>    1.4112    1.0000 </r>
       <r>    4.1251    0.0000 </r>
       <r>    4.1251    0.0000 </r>
       <r>   14.2150    0.0000 </r>
       <r>   14.2150    0.0000 </r>
      </set>
      <set comment="kpoint 16">
       <r>   -1.8518    1.0000 </r>
       <r>   -1.8518    1.0000 </r>
       <r>    0.2117    1.0000 </r>
       <r>    0.2117    1.0000 </r>
       <r>    0.4778    1.0000 </r>
       <r>    0.4778    1.0000 </r>
       <r>    0.8274    1.0000 </r>
       <r>    0.8274    1.0000 </r>
       <r>    1.1182    1.0000 </r>
       <r>    1.1182    1.0000 </r>
       <r>    1.3324    1.0000 </r>
       <r>    1.3324    1.0000 </r>
       <r>    5.4348    0.0000 </r>
       <r>    5.4348    0.0000 </r>
       <r>   15.0505    0.0000 </r>
       <r>   15.0505    0.0000 </r>
      </set>
      <set comment="kpoint 17">
       <r>   -0.8899    1.0000 </r>
       <r>   -0.8899    1.0000 </r>
       <r>   -0.1456    1.0000 </r>
       <r>   -0.1456    1.0000 </r>
       <r>    0.7353    1.0000 </r>
       <r>    0.7353    1.0000 </r>
       <r>    1.1768    1.0000 </r>
       <r>    1.1768    1.0000 </r>
       <r>    2.0167    1.0000 </r>
       <r>    2.0167    1.0000 </r>
       <r>    2.1323    1.0000 </r>
       <r>    2.1323    1.0000 </r>
       <r>    8.3522    0.0000 </r>
       <r>    8.3522    0.0000 </r>
       <r>   14.3820    0.0000 </r>
       <r>   14.3820    0.0000 </r>
      </set>
      <set comment="kpoint 18">
       <r>   -1.0529    1.0000 </r>
       <r>   -1.0529    1.0000 </r>
       <r>   -0.4233    1.0000 </r>
       <r>   -0.4233    1.0000 </r>
       <r>    0.9980    1.0000 </r>
       <r>    0.9980    1.0000 </r>
       <r>    1.1001    1.0000 </r>
       <r>    1.1001    1.0000 </r>
       <r>    2.5155    1.0000 </r>
       <r>    2.5155    1.0000 </r>
       <r>    5.3852    0.0000 </r>
       <r>    5.3852    0.0000 </r>
       <r>    9.3212    0.0000 </r>
       <r>    9.3212    0.0000 </r>
       <r>   11.7906    0.0000 </r>
       <r>   11.7906    0.0000 </r>
      </set>
      <set comment="kpoint 19">
       <r>   -0.4666    1.0000 </r>
       <r>   -0.4666    1.0000 </r>
       <r>    0.0753    1.0000 </r>
       <r>    0.0753    1.0000 </r>
       <r>    0.0982    1.0000 </r>
       <r>    0.0982    1.0000 </r>
       <r>    0.8947    1.0000 </r>
       <r>    0.8947    1.0000 </r>
       <r>    1.1192    1.0000 </r>
       <r>    1.1192    1.0000 </r>
       <r>    2.2896    1.0000 </r>
       <r>    2.2896    1.0000 </r>
       <r>    7.4863    0.0000 </r>
       <r>    7.4863    0.0000 </r>
       <r>   16.5268    0.0000 </r>
       <r>   16.5268    0.0000 </r>
      </set>
      <set comment="kpoint 20">
       <r>   -0.4817    1.0000 </r>
       <r>   -0.4817    1.0000 </r>
       <r>   -0.2120    1.0000 </r>
       <r>   -0.2120    1.0000 </r>
       <r>    0.8269    1.0000 </r>
       <r>    0.8269    1.0000 </r>
       <r>    0.8699    1.0000 </r>
       <r>    0.8699    1.0000 </r>
       <r>    1.4345    1.0000 </r>
       <r>    1.4345    1.0000 </r>
       <r>    5.4739    0.0000 </r>
       <r>    5.4739    0.0000 </r>
       <r>   10.8379    0.0000 </r>
       <r>   10.8379    0.0000 </r>
       <r>   11.9618    0.0000 </r>
       <r>   11.9618    0.0000 </r>
      </set>
      <set comment="kpoint 21">
       <r>    0.1960    1.0000 </r>
       <r>    0.1960    1.0000 </r>
       <r>    0.1972    1.0000 </r>
       <r>    0.1972    1.0000 </r>
       <r>    0.4516    1.0000 </r>
       <r>    0.4516    1.0000 </r>
       <r>    0.4548    1.0000 </r>
       <r>    0.4549    1.0000 </r>
       <r>    0.9753    1.0000 </r>
       <r>    0.9753    1.0000 </r>
       <r>    9.9847    0.0000 </r>
       <r>    9.9847    0.0000 </r>
       <r>   10.0627    0.0000 </r>
       <r>   10.0627    0.0000 </r>
       <r>   11.6085    0.0000 </r>
       <r>   11.6085    0.0000 </r>
      </set>
     </set>
     <set comment="spin 2">
      <set comment="kpoint 1">
       <r>   -2.7821    1.0000 </r>
       <r>   -2.1404    1.0000 </r>
       <r>    1.4797    1.0000 </r>
       <r>    2.1800    1.0000 </r>
       <r>    2.5574    1.0000 </r>
       <r>    2.5574    1.0000 </r>
       <r>    2.5587    1.0000 </r>
       <r>    2.5587    1.0000 </r>
       <r>    2.6855    1.0000 </r>
       <r>    3.8478    0.0000 </r>
       <r>    3.8478    0.0000 </r>
       <r>    3.8516    0.0000 </r>
       <r>    3.8516    0.0000 </r>
       <r>    6.6911    0.0000 </r>
       <r>   11.2011    0.0000 </r>
       <r>   18.7919    0.0000 </r>
      </set>
      <set comment="kpoint 2">
       <r>   -1.7882    1.0000 </r>
       <r>   -1.1525    1.0000 </r>
       <r>    1.8337    1.0000 </r>
       <r>    1.9856    1.0000 </r>
       <r>    2.2390    1.0000 </r>
       <r>    2.2553    1.0000 </r>
       <r>    2.8967    0.9997 </r>
       <r>    2.9461    0.9793 </r>
       <r>    3.0148    0.5383 </r>
       <r>    3.0161    0.5241 </r>
       <r>    3.7514    0.0000 </r>
       <r>    3.7600    0.0000 </r>
       <r>    4.6737    0.0000 </r>
       <r>    8.3845    0.0000 </r>
       <r>   11.7415    0.0000 </r>
       <r>   19.9821    0.0000 </r>
      </set>
      <set comment="kpoint 3">
       <r>    0.1704    1.0000 </r>
       <r>    0.3948    1.0000 </r>
       <r>    1.6244    1.0000 </r>
       <r>    1.9686    1.0000 </r>
       <r>    2.3798    1.0000 </r>
       <r>    2.7513    1.0000 </r>
       <r>    2.8290    1.0000 </r>
       <r>    3.5232    0.0000 </r>
       <r>    3.5635    0.0000 </r>
       <r>    3.5785    0.0000 </r>
       <r>    4.0324    0.0000 </r>
       <r>    4.0334    0.0000 </r>
       <r>    7.1693    0.0000 </r>
       <r>   11.6772    0.0000 </r>
       <r>   13.1958    0.0000 </r>
       <r>   14.7070    0.0000 </r>
      </set>
      <set comment="kpoint 4">
       <r>    0.3418    1.0000 </r>
       <r>    0.3563    1.0000 </r>
       <r>    1.4829    1.0000 </r>
       <r>    1.5958    1.0000 </r>
       <r>    3.1707    0.0000 </r>
       <r>    3.3117    0.0000 </r>
       <r>    3.4712    0.0000 </r>
       <r>    3.4893    0.0000 </r>
       <r>    4.6095    0.0000 </r>
       <r>    4.6097    0.0000 </r>
       <r>    5.2597    0.0000 </r>
       <r>    5.6372    0.0000 </r>
       <r>   10.0878    0.0000 </r>
       <r>   10.7360    0.0000 </r>
       <r>   10.9554    0.0000 </r>
       <r>   11.8489    0.0000 </r>
      </set>
      <set comment="kpoint 5">
       <r>   -0.0414    1.0000 </r>
       <r>    0.4832    1.0000 </r>
       <r>    1.7539    1.0000 </r>
       <r>    1.7602    1.0000 </r>
       <r>    1.7757    1.0000 </r>
       <r>    2.2656    1.0000 </r>
       <r>    2.4276    1.0000 </r>
       <r>    3.2109    0.0000 </r>
       <r>    3.4874    0.0000 </r>
       <r>    3.4992    0.0000 </r>
       <r>    3.9966    0.0000 </r>
       <r>    4.1311    0.0000 </r>
       <r>    6.3894    0.0000 </r>
       <r>   10.7756    0.0000 </r>
       <r>   12.9173    0.0000 </r>
       <r>   18.5922    0.0000 </r>
      </set>
      <set comment="kpoint 6">
       <r>    0.9383    1.0000 </r>
       <r>    0.9730    1.0000 </r>
       <r>    1.7015    1.0000 </r>
       <r>    1.8684    1.0000 </r>
       <r>    2.6497    1.0000 </r>
       <r>    2.7190    1.0000 </r>
       <r>    3.1121    0.0040 </r>
       <r>    3.1240    0.0014 </r>
       <r>    3.1431    0.0002 </r>
       <r>    3.4369    0.0000 </r>
       <r>    6.1011    0.0000 </r>
       <r>    6.7751    0.0000 </r>
       <r>    9.7592    0.0000 </r>
       <r>   11.9408    0.0000 </r>
       <r>   12.9855    0.0000 </r>
       <r>   13.9630    0.0000 </r>
      </set>
      <set comment="kpoint 7">
       <r>    1.8997    1.0000 </r>
       <r>    1.9305    1.0000 </r>
       <r>    1.9305    1.0000 </r>
       <r>    1.9682    1.0000 </r>
       <r>    2.2661    1.0000 </r>
       <r>    2.3280    1.0000 </r>
       <r>    2.3280    1.0000 </r>
       <r>    2.3947    1.0000 </r>
       <r>    3.3027    0.0000 </r>
       <r>    3.3027    0.0000 </r>
       <r>   10.2050    0.0000 </r>
       <r>   10.5025    0.0000 </r>
       <r>   10.5025    0.0000 </r>
       <r>   11.1970    0.0000 </r>
       <r>   12.7881    0.0000 </r>
       <r>   12.7881    0.0000 </r>
      </set>
      <set comment="kpoint 8">
       <r>   -2.7013    1.0000 </r>
       <r>   -2.2504    1.0000 </r>
       <r>    1.5100    1.0000 </r>
       <r>    1.8607    1.0000 </r>
       <r>    2.5576    1.0000 </r>
       <r>    2.5576    1.0000 </r>
       <r>    2.5585    1.0000 </r>
       <r>    2.5585    1.0000 </r>
       <r>    3.3661    0.0000 </r>
       <r>    3.8483    0.0000 </r>
       <r>    3.8483    0.0000 </r>
       <r>    3.8510    0.0000 </r>
       <r>    3.8510    0.0000 </r>
       <r>    5.9239    0.0000 </r>
       <r>   12.2478    0.0000 </r>
       <r>   16.9904    0.0000 </r>
      </set>
      <set comment="kpoint 9">
       <r>   -1.7083    1.0000 </r>
       <r>   -1.2618    1.0000 </r>
       <r>    1.8439    1.0000 </r>
       <r>    1.9417    1.0000 </r>
       <r>    2.2439    1.0000 </r>
       <r>    2.2542    1.0000 </r>
       <r>    2.9163    0.9980 </r>
       <r>    2.9454    0.9802 </r>
       <r>    3.0150    0.5355 </r>
       <r>    3.0160    0.5248 </r>
       <r>    3.7528    0.0000 </r>
       <r>    3.7588    0.0000 </r>
       <r>    5.0634    0.0000 </r>
       <r>    7.4767    0.0000 </r>
       <r>   12.9575    0.0000 </r>
       <r>   17.9388    0.0000 </r>
      </set>
      <set comment="kpoint 10">
       <r>    0.2023    1.0000 </r>
       <r>    0.3608    1.0000 </r>
       <r>    1.6571    1.0000 </r>
       <r>    1.8780    1.0000 </r>
       <r>    2.5330    1.0000 </r>
       <r>    2.7535    1.0000 </r>
       <r>    2.8358    1.0000 </r>
       <r>    3.3300    0.0000 </r>
       <r>    3.5657    0.0000 </r>
       <r>    3.5763    0.0000 </r>
       <r>    4.0326    0.0000 </r>
       <r>    4.0333    0.0000 </r>
       <r>    7.6353    0.0000 </r>
       <r>   10.3791    0.0000 </r>
       <r>   14.3803    0.0000 </r>
       <r>   14.8686    0.0000 </r>
      </set>
      <set comment="kpoint 11">
       <r>    0.3436    1.0000 </r>
       <r>    0.3539    1.0000 </r>
       <r>    1.4969    1.0000 </r>
       <r>    1.5765    1.0000 </r>
       <r>    3.2003    0.0000 </r>
       <r>    3.3024    0.0000 </r>
       <r>    3.4737    0.0000 </r>
       <r>    3.4865    0.0000 </r>
       <r>    4.6095    0.0000 </r>
       <r>    4.6097    0.0000 </r>
       <r>    5.2942    0.0000 </r>
       <r>    5.5624    0.0000 </r>
       <r>   10.0792    0.0000 </r>
       <r>   10.3673    0.0000 </r>
       <r>   11.5451    0.0000 </r>
       <r>   12.0504    0.0000 </r>
      </set>
      <set comment="kpoint 12">
       <r>    0.0252    1.0000 </r>
       <r>    0.3931    1.0000 </r>
       <r>    1.7548    1.0000 </r>
       <r>    1.7589    1.0000 </r>
       <r>    1.8327    1.0000 </r>
       <r>    2.1327    1.0000 </r>
       <r>    2.5900    1.0000 </r>
       <r>    3.0940    0.0160 </r>
       <r>    3.4892    0.0000 </r>
       <r>    3.4975    0.0000 </r>
       <r>    4.0025    0.0000 </r>
       <r>    4.0814    0.0000 </r>
       <r>    6.8597    0.0000 </r>
       <r>    9.5795    0.0000 </r>
       <r>   14.3999    0.0000 </r>
       <r>   18.6929    0.0000 </r>
      </set>
      <set comment="kpoint 13">
       <r>    0.9430    1.0000 </r>
       <r>    0.9675    1.0000 </r>
       <r>    1.7215    1.0000 </r>
       <r>    1.8376    1.0000 </r>
       <r>    2.6702    1.0000 </r>
       <r>    2.7162    1.0000 </r>
       <r>    3.1167    0.0027 </r>
       <r>    3.1377    0.0004 </r>
       <r>    3.1674    0.0000 </r>
       <r>    3.3905    0.0000 </r>
       <r>    6.1611    0.0000 </r>
       <r>    6.6154    0.0000 </r>
       <r>   10.2010    0.0000 </r>
       <r>   11.9469    0.0000 </r>
       <r>   12.6847    0.0000 </r>
       <r>   13.2113    0.0000 </r>
      </set>
      <set comment="kpoint 14">
       <r>    1.9076    1.0000 </r>
       <r>    1.9316    1.0000 </r>
       <r>    1.9316    1.0000 </r>
       <r>    1.9552    1.0000 </r>
       <r>    2.2879    1.0000 </r>
       <r>    2.3253    1.0000 </r>
       <r>    2.3253    1.0000 </r>
       <r>    2.3779    1.0000 </r>
       <r>    3.3053    0.0000 </r>
       <r>    3.3053    0.0000 </r>
       <r>   10.3158    0.0000 </r>
       <r>   10.5201    0.0000 </r>
       <r>   10.5201    0.0000 </r>
       <r>   10.9995    0.0000 </r>
       <r>   12.4839    0.0000 </r>
       <r>   12.4839    0.0000 </r>
      </set>
      <set comment="kpoint 15">
       <r>   -2.4901    1.0000 </r>
       <r>   -2.4901    1.0000 </r>
       <r>    1.6183    1.0000 </r>
       <r>    1.6183    1.0000 </r>
       <r>    2.5579    1.0000 </r>
       <r>    2.5579    1.0000 </r>
       <r>    2.5579    1.0000 </r>
       <r>    2.5579    1.0000 </r>
       <r>    3.8495    0.0000 </r>
       <r>    3.8495    0.0000 </r>
       <r>    3.8495    0.0000 </r>
       <r>    3.8495    0.0000 </r>
       <r>    4.5707    0.0000 </r>
       <r>    4.5707    0.0000 </r>
       <r>   14.4382    0.0000 </r>
       <r>   14.4382    0.0000 </r>
      </set>
      <set comment="kpoint 16">
       <r>   -1.4994    1.0000 </r>
       <r>   -1.4994    1.0000 </r>
       <r>    1.8787    1.0000 </r>
       <r>    1.8787    1.0000 </r>
       <r>    2.2503    1.0000 </r>
       <r>    2.2503    1.0000 </r>
       <r>    2.9380    0.9883 </r>
       <r>    2.9380    0.9883 </r>
       <r>    3.0155    0.5303 </r>
       <r>    3.0155    0.5303 </r>
       <r>    3.7558    0.0000 </r>
       <r>    3.7558    0.0000 </r>
       <r>    6.0986    0.0000 </r>
       <r>    6.0986    0.0000 </r>
       <r>   15.2797    0.0000 </r>
       <r>   15.2797    0.0000 </r>
      </set>
      <set comment="kpoint 17">
       <r>    0.2806    1.0000 </r>
       <r>    0.2806    1.0000 </r>
       <r>    1.7480    1.0000 </r>
       <r>    1.7480    1.0000 </r>
       <r>    2.7318    1.0000 </r>
       <r>    2.7318    1.0000 </r>
       <r>    2.9743    0.8926 </r>
       <r>    2.9743    0.8926 </r>
       <r>    3.5710    0.0000 </r>
       <r>    3.5710    0.0000 </r>
       <r>    4.0330    0.0000 </r>
       <r>    4.0330    0.0000 </r>
       <r>    8.8079    0.0000 </r>
       <r>    8.8079    0.0000 </r>
       <r>   14.9331    0.0000 </r>
       <r>   14.9331    0.0000 </r>
      </set>
      <set comment="kpoint 18">
       <r>    0.3484    1.0000 </r>
       <r>    0.3484    1.0000 </r>
       <r>    1.5343    1.0000 </r>
       <r>    1.5343    1.0000 </r>
       <r>    3.2615    0.0000 </r>
       <r>    3.2615    0.0000 </r>
       <r>    3.4802    0.0000 </r>
       <r>    3.4802    0.0000 </r>
       <r>    4.6095    0.0000 </r>
       <r>    4.6096    0.0000 </r>
       <r>    5.4084    0.0000 </r>
       <r>    5.4084    0.0000 </r>
       <r>   10.1382    0.0000 </r>
       <r>   10.1382    0.0000 </r>
       <r>   12.1402    0.0000 </r>
       <r>   12.1402    0.0000 </r>
      </set>
      <set comment="kpoint 19">
       <r>    0.1980    1.0000 </r>
       <r>    0.1980    1.0000 </r>
       <r>    1.7569    1.0000 </r>
       <r>    1.7569    1.0000 </r>
       <r>    1.9667    1.0000 </r>
       <r>    1.9667    1.0000 </r>
       <r>    2.8427    1.0000 </r>
       <r>    2.8427    1.0000 </r>
       <r>    3.4932    0.0000 </r>
       <r>    3.4932    0.0000 </r>
       <r>    4.0261    0.0000 </r>
       <r>    4.0261    0.0000 </r>
       <r>    8.0283    0.0000 </r>
       <r>    8.0283    0.0000 </r>
       <r>   16.8070    0.0000 </r>
       <r>   16.8070    0.0000 </r>
      </set>
      <set comment="kpoint 20">
       <r>    0.9548    1.0000 </r>
       <r>    0.9548    1.0000 </r>
       <r>    1.7744    1.0000 </r>
       <r>    1.7744    1.0000 </r>
       <r>    2.7013    1.0000 </r>
       <r>    2.7013    1.0000 </r>
       <r>    3.1275    0.0010 </r>
       <r>    3.1275    0.0010 </r>
       <r>    3.2771    0.0000 </r>
       <r>    3.2771    0.0000 </r>
       <r>    6.3443    0.0000 </r>
       <r>    6.3443    0.0000 </r>
       <r>   11.2328    0.0000 </r>
       <r>   11.2328    0.0000 </r>
       <r>   12.5810    0.0000 </r>
       <r>   12.5810    0.0000 </r>
      </set>
      <set comment="kpoint 21">
       <r>    1.9290    1.0000 </r>
       <r>    1.9290    1.0000 </r>
       <r>    1.9326    1.0000 </r>
       <r>    1.9326    1.0000 </r>
       <r>    2.3226    1.0000 </r>
       <r>    2.3226    1.0000 </r>
       <r>    2.3352    1.0000 </r>
       <r>    2.3352    1.0000 </r>
       <r>    3.3079    0.0000 </r>
       <r>    3.3079    0.0000 </r>
       <r>   10.5391    0.0000 </r>
       <r>   10.5391    0.0000 </r>
       <r>   10.6187    0.0000 </r>
       <r>   10.6187    0.0000 </r>
       <r>   12.2850    0.0000 </r>
       <r>   12.2850    0.0000 </r>
      </set>
     </set>
    </set>
   </array>
  </eigenvalues>
  <separator name="orbital magnetization" >
   <v name="MAGDIPOLOUT">      0.00000000      0.00000000      0.00000000</v>
  </separator>
  <dos>
   <i name="efermi">      3.01819370 </i>
   <total>
    <array>
     <dimension dim="1">gridpoints</dimension>
     <dimension dim="2">spin</dimension>
     <field>energy</field>
     <field>total</field>
     <field>integrated</field>
     <set>
      <set comment="spin 1">
       <r>    -4.1639     0.0000     0.0000 </r>
       <r>    -4.0796     0.0000     0.0000 </r>
       <r>    -3.9953     0.0000     0.0000 </r>
       <r>    -3.9110     0.0000     0.0000 </r>
       <r>    -3.8266     0.0000     0.0000 </r>
       <r>    -3.7423     0.0000     0.0000 </r>
       <r>    -3.6580     0.0000     0.0000 </r>
       <r>    -3.5737     0.0000     0.0000 </r>
       <r>    -3.4894     0.0000     0.0000 </r>
       <r>    -3.4050     0.0000     0.0000 </r>
       <r>    -3.3207     0.0000     0.0000 </r>
       <r>    -3.2364     0.0000     0.0000 </r>
       <r>    -3.1521     0.0000     0.0000 </r>
       <r>    -3.0678     0.0054     0.0005 </r>
       <r>    -2.9834     0.0891     0.0080 </r>
       <r>    -2.8991     0.1402     0.0198 </r>
       <r>    -2.8148     0.0520     0.0242 </r>
       <r>    -2.7305     0.1177     0.0341 </r>
       <r>    -2.6462     0.0535     0.0386 </r>
       <r>    -2.5618     0.1487     0.0511 </r>
       <r>    -2.4775     0.0513     0.0555 </r>
       <r>    -2.3932     0.0011     0.0556 </r>
       <r>    -2.3089     0.0000     0.0556 </r>
       <r>    -2.2246     0.0000     0.0556 </r>
       <r>    -2.1402     0.0024     0.0558 </r>
       <r>    -2.0559     0.2380     0.0758 </r>
       <r>    -1.9716     0.9484     0.1558 </r>
       <r>    -1.8873     0.4479     0.1936 </r>
       <r>    -1.8030     0.7576     0.2574 </r>
       <r>    -1.7187     0.5479     0.3036 </r>
       <r>    -1.6343     0.8808     0.3779 </r>
       <r>    -1.5500     0.1298     0.3888 </r>
       <r>    -1.4657     0.0005     0.3889 </r>
       <r>    -1.3814     0.0000     0.3889 </r>
       <r>    -1.2971     0.0000     0.3889 </r>
       <r>    -1.2127     0.0000     0.3889 </r>
       <r>    -1.1284     0.0320     0.3916 </r>
       <r>    -1.0441     1.1467     0.4883 </r>
       <r>    -0.9598     0.9383     0.5674 </r>
       <r>    -0.8755     2.3921     0.7691 </r>
       <r>    -0.7911     1.3978     0.8870 </r>
       <r>    -0.7068     0.0230     0.8889 </r>
       <r>    -0.6225     0.0060     0.8894 </r>
       <r>    -0.5382     0.9673     0.9710 </r>
       <r>    -0.4539     7.9223     1.6390 </r>
       <r>    -0.3695     4.5410     2.0219 </r>
       <r>    -0.2852     0.8857     2.0965 </r>
       <r>    -0.2009     5.0537     2.5227 </r>
       <r>    -0.1166     4.8936     2.9353 </r>
       <r>    -0.0323     1.6922     3.0780 </r>
       <r>     0.0521     2.8703     3.3200 </r>
       <r>     0.1364     5.0648     3.7471 </r>
       <r>     0.2207     3.8520     4.0719 </r>
       <r>     0.3050     1.3567     4.1863 </r>
       <r>     0.3893     0.4657     4.2255 </r>
       <r>     0.4737     4.4694     4.6024 </r>
       <r>     0.5580     3.6406     4.9094 </r>
       <r>     0.6423     1.2221     5.0124 </r>
       <r>     0.7266     2.8614     5.2537 </r>
       <r>     0.8109     6.5254     5.8039 </r>
       <r>     0.8952    13.0577     6.9049 </r>
       <r>     0.9796     4.6734     7.2990 </r>
       <r>     1.0639     2.8608     7.5402 </r>
       <r>     1.1482     8.9890     8.2981 </r>
       <r>     1.2325     5.2596     8.7416 </r>
       <r>     1.3168     1.9807     8.9086 </r>
       <r>     1.4012     5.5640     9.3778 </r>
       <r>     1.4855     3.9373     9.7098 </r>
       <r>     1.5698     2.0294     9.8809 </r>
       <r>     1.6541     0.0951     9.8889 </r>
       <r>     1.7384     0.1193     9.8990 </r>
       <r>     1.8228     0.5162     9.9425 </r>
       <r>     1.9071     0.7730    10.0077 </r>
       <r>     1.9914     1.0138    10.0932 </r>
       <r>     2.0757     2.8832    10.3363 </r>
       <r>     2.1600     1.2152    10.4387 </r>
       <r>     2.2444     1.4292    10.5593 </r>
       <r>     2.3287     0.8940    10.6346 </r>
       <r>     2.4130     0.2648    10.6570 </r>
       <r>     2.4973     1.8184    10.8103 </r>
       <r>     2.5816     2.2453    10.9996 </r>
       <r>     2.6660     0.3506    11.0292 </r>
       <r>     2.7503     0.3717    11.0605 </r>
       <r>     2.8346     0.1429    11.0726 </r>
       <r>     2.9189     0.0451    11.0764 </r>
       <r>     3.0032     0.0002    11.0764 </r>
       <r>     3.0876     0.0000    11.0764 </r>
       <r>     3.1719     0.0000    11.0764 </r>
       <r>     3.2562     0.0000    11.0764 </r>
       <r>     3.3405     0.0000    11.0764 </r>
       <r>     3.4248     0.0000    11.0764 </r>
       <r>     3.5091     0.0000    11.0764 </r>
       <r>     3.5935     0.0000    11.0764 </r>
       <r>     3.6778     0.0311    11.0790 </r>
       <r>     3.7621     0.3660    11.1099 </r>
       <r>     3.8464     0.0968    11.1180 </r>
       <r>     3.9307     0.0003    11.1181 </r>
       <r>     4.0151     0.0002    11.1181 </r>
       <r>     4.0994     0.0384    11.1213 </r>
       <r>     4.1837     0.1958    11.1378 </r>
       <r>     4.2680     0.7546    11.2014 </r>
       <r>     4.3523     0.1637    11.2152 </r>
       <r>     4.4367     0.0004    11.2153 </r>
       <r>     4.5210     0.0000    11.2153 </r>
       <r>     4.6053     0.0000    11.2153 </r>
       <r>     4.6896     0.0000    11.2153 </r>
       <r>     4.7739     0.0000    11.2153 </r>
       <r>     4.8583     0.0000    11.2153 </r>
       <r>     4.9426     0.0000    11.2153 </r>
       <r>     5.0269     0.0002    11.2153 </r>
       <r>     5.1112     0.1205    11.2255 </r>
       <r>     5.1955     1.0634    11.3151 </r>
       <r>     5.2799     2.1018    11.4923 </r>
       <r>     5.3642     0.5787    11.5411 </r>
       <r>     5.4485     1.4388    11.6625 </r>
       <r>     5.5328     2.1220    11.8414 </r>
       <r>     5.6171     0.5799    11.8903 </r>
       <r>     5.7015     0.0748    11.8966 </r>
       <r>     5.7858     0.9205    11.9742 </r>
       <r>     5.8701     1.4921    12.1000 </r>
       <r>     5.9544     0.3873    12.1327 </r>
       <r>     6.0387     0.6265    12.1855 </r>
       <r>     6.1230     0.0237    12.1875 </r>
       <r>     6.2074     0.0095    12.1883 </r>
       <r>     6.2917     0.5013    12.2306 </r>
       <r>     6.3760     0.4813    12.2712 </r>
       <r>     6.4603     0.0705    12.2771 </r>
       <r>     6.5446     0.0081    12.2778 </r>
       <r>     6.6290     0.0071    12.2784 </r>
       <r>     6.7133     0.2787    12.3019 </r>
       <r>     6.7976     0.2064    12.3193 </r>
       <r>     6.8819     0.1651    12.3332 </r>
       <r>     6.9662     0.7470    12.3962 </r>
       <r>     7.0506     0.0784    12.4028 </r>
       <r>     7.1349     0.1306    12.4138 </r>
       <r>     7.2192     0.7566    12.4776 </r>
       <r>     7.3035     0.1008    12.4861 </r>
       <r>     7.3878     0.0028    12.4863 </r>
       <r>     7.4722     0.3374    12.5148 </r>
       <r>     7.5565     0.6249    12.5675 </r>
       <r>     7.6408     0.0234    12.5694 </r>
       <r>     7.7251     0.0001    12.5695 </r>
       <r>     7.8094     0.0656    12.5750 </r>
       <r>     7.8938     0.3782    12.6069 </r>
       <r>     7.9781     0.0502    12.6111 </r>
       <r>     8.0624     0.0001    12.6111 </r>
       <r>     8.1467     0.0000    12.6111 </r>
       <r>     8.2310     0.0003    12.6111 </r>
       <r>     8.3154     0.1466    12.6235 </r>
       <r>     8.3997     0.7528    12.6870 </r>
       <r>     8.4840     0.0885    12.6944 </r>
       <r>     8.5683     0.0001    12.6944 </r>
       <r>     8.6526     0.0000    12.6944 </r>
       <r>     8.7369     0.0000    12.6944 </r>
       <r>     8.8213     0.0000    12.6944 </r>
       <r>     8.9056     0.0001    12.6945 </r>
       <r>     8.9899     0.0748    12.7008 </r>
       <r>     9.0742     0.7445    12.7635 </r>
       <r>     9.1585     0.1996    12.7804 </r>
       <r>     9.2429     0.5272    12.8248 </r>
       <r>     9.3272     0.4728    12.8647 </r>
       <r>     9.4115     0.7263    12.9259 </r>
       <r>     9.4958     0.4598    12.9647 </r>
       <r>     9.5801     0.0491    12.9688 </r>
       <r>     9.6645     0.4339    13.0054 </r>
       <r>     9.7488     0.2476    13.0263 </r>
       <r>     9.8331     1.0982    13.1189 </r>
       <r>     9.9174     1.9572    13.2839 </r>
       <r>    10.0017     1.3658    13.3991 </r>
       <r>    10.0861     0.6159    13.4510 </r>
       <r>    10.1704     0.4329    13.4875 </r>
       <r>    10.2547     0.1470    13.4999 </r>
       <r>    10.3390     0.0099    13.5008 </r>
       <r>    10.4233     0.2683    13.5234 </r>
       <r>    10.5077     0.2888    13.5477 </r>
       <r>    10.5920     0.1155    13.5575 </r>
       <r>    10.6763     0.0590    13.5625 </r>
       <r>    10.7606     0.0294    13.5649 </r>
       <r>    10.8449     1.1510    13.6620 </r>
       <r>    10.9293     0.8684    13.7352 </r>
       <r>    11.0136     0.0466    13.7391 </r>
       <r>    11.0979     0.6773    13.7963 </r>
       <r>    11.1822     0.2736    13.8193 </r>
       <r>    11.2665     0.0626    13.8246 </r>
       <r>    11.3508     1.4319    13.9453 </r>
       <r>    11.4352     1.4913    14.0711 </r>
       <r>    11.5195     0.4310    14.1074 </r>
       <r>    11.6038     0.3649    14.1382 </r>
       <r>    11.6881     0.2552    14.1597 </r>
       <r>    11.7724     0.5462    14.2058 </r>
       <r>    11.8568     1.0597    14.2951 </r>
       <r>    11.9411     0.6586    14.3507 </r>
       <r>    12.0254     1.5977    14.4854 </r>
       <r>    12.1097     1.4303    14.6060 </r>
       <r>    12.1940     0.7936    14.6729 </r>
       <r>    12.2784     0.0412    14.6764 </r>
       <r>    12.3627     0.6676    14.7327 </r>
       <r>    12.4470     0.2862    14.7568 </r>
       <r>    12.5313     0.0017    14.7570 </r>
       <r>    12.6156     0.1328    14.7681 </r>
       <r>    12.7000     2.0039    14.9371 </r>
       <r>    12.7843     1.0864    15.0287 </r>
       <r>    12.8686     0.2327    15.0483 </r>
       <r>    12.9529     0.0247    15.0504 </r>
       <r>    13.0372     0.3488    15.0798 </r>
       <r>    13.1216     0.1234    15.0902 </r>
       <r>    13.2059     0.0006    15.0903 </r>
       <r>    13.2902     0.0003    15.0903 </r>
       <r>    13.3745     0.1479    15.1028 </r>
       <r>    13.4588     0.7524    15.1662 </r>
       <r>    13.5432     0.0877    15.1736 </r>
       <r>    13.6275     0.0001    15.1736 </r>
       <r>    13.7118     0.0000    15.1736 </r>
       <r>    13.7961     0.0003    15.1736 </r>
       <r>    13.8804     0.1369    15.1852 </r>
       <r>    13.9647     0.7553    15.2489 </r>
       <r>    14.0491     0.0961    15.2570 </r>
       <r>    14.1334     0.1721    15.2715 </r>
       <r>    14.2177     1.0892    15.3633 </r>
       <r>    14.3020     0.3970    15.3968 </r>
       <r>    14.3863     0.9311    15.4753 </r>
       <r>    14.4707     1.0124    15.5607 </r>
       <r>    14.5550     0.0218    15.5625 </r>
       <r>    14.6393     0.0000    15.5625 </r>
       <r>    14.7236     0.0000    15.5625 </r>
       <r>    14.8079     0.0000    15.5625 </r>
       <r>    14.8923     0.0000    15.5625 </r>
       <r>    14.9766     0.0180    15.5640 </r>
       <r>    15.0609     0.5900    15.6138 </r>
       <r>    15.1452     0.3766    15.6455 </r>
       <r>    15.2295     0.0037    15.6458 </r>
       <r>    15.3139     0.0000    15.6458 </r>
       <r>    15.3982     0.0000    15.6458 </r>
       <r>    15.4825     0.0000    15.6458 </r>
       <r>    15.5668     0.0000    15.6458 </r>
       <r>    15.6511     0.0000    15.6458 </r>
       <r>    15.7355     0.0000    15.6458 </r>
       <r>    15.8198     0.0000    15.6458 </r>
       <r>    15.9041     0.0000    15.6458 </r>
       <r>    15.9884     0.0000    15.6458 </r>
       <r>    16.0727     0.0000    15.6458 </r>
       <r>    16.1571     0.0000    15.6458 </r>
       <r>    16.2414     0.0000    15.6458 </r>
       <r>    16.3257     0.0000    15.6458 </r>
       <r>    16.4100     0.0005    15.6459 </r>
       <r>    16.4943     0.1766    15.6608 </r>
       <r>    16.5786     0.7408    15.7232 </r>
       <r>    16.6630     0.0704    15.7292 </r>
       <r>    16.7473     0.0003    15.7292 </r>
       <r>    16.8316     0.0423    15.7328 </r>
       <r>    16.9159     0.1154    15.7425 </r>
       <r>    17.0002     0.0068    15.7431 </r>
       <r>    17.0846     0.0000    15.7431 </r>
       <r>    17.1689     0.0000    15.7431 </r>
       <r>    17.2532     0.0000    15.7431 </r>
       <r>    17.3375     0.0000    15.7431 </r>
       <r>    17.4218     0.0000    15.7431 </r>
       <r>    17.5062     0.0000    15.7431 </r>
       <r>    17.5905     0.0000    15.7431 </r>
       <r>    17.6748     0.0055    15.7435 </r>
       <r>    17.7591     0.4283    15.7796 </r>
       <r>    17.8434     0.5419    15.8253 </r>
       <r>    17.9278     0.0127    15.8264 </r>
       <r>    18.0121     0.0000    15.8264 </r>
       <r>    18.0964     0.0000    15.8264 </r>
       <r>    18.1807     0.0045    15.8268 </r>
       <r>    18.2650     0.2622    15.8489 </r>
       <r>    18.3494     0.7993    15.9163 </r>
       <r>    18.4337     0.4117    15.9510 </r>
       <r>    18.5180     0.0047    15.9514 </r>
       <r>    18.6023     0.0000    15.9514 </r>
       <r>    18.6866     0.0000    15.9514 </r>
       <r>    18.7710     0.0159    15.9527 </r>
       <r>    18.8553     0.0611    15.9579 </r>
       <r>    18.9396     0.0053    15.9583 </r>
       <r>    19.0239     0.0000    15.9583 </r>
       <r>    19.1082     0.0000    15.9583 </r>
       <r>    19.1925     0.0000    15.9583 </r>
       <r>    19.2769     0.0000    15.9583 </r>
       <r>    19.3612     0.0000    15.9583 </r>
       <r>    19.4455     0.0000    15.9583 </r>
       <r>    19.5298     0.0000    15.9583 </r>
       <r>    19.6141     0.0000    15.9583 </r>
       <r>    19.6985     0.0000    15.9583 </r>
       <r>    19.7828     0.0000    15.9583 </r>
       <r>    19.8671     0.0074    15.9590 </r>
       <r>    19.9514     0.2816    15.9827 </r>
       <r>    20.0357     0.2028    15.9998 </r>
       <r>    20.1201     0.0023    16.0000 </r>
       <r>    20.2044     0.0000    16.0000 </r>
       <r>    20.2887     0.0000    16.0000 </r>
       <r>    20.3730     0.0000    16.0000 </r>
       <r>    20.4573     0.0000    16.0000 </r>
       <r>    20.5417     0.0000    16.0000 </r>
       <r>    20.6260     0.0000    16.0000 </r>
       <r>    20.7103     0.0000    16.0000 </r>
       <r>    20.7946     0.0000    16.0000 </r>
       <r>    20.8789     0.0000    16.0000 </r>
       <r>    20.9633     0.0000    16.0000 </r>
       <r>    21.0476     0.0000    16.0000 </r>
       <r>    21.1319     0.0000    16.0000 </r>
      </set>
      <set comment="spin 2">
       <r>    -4.1639     0.0000     0.0000 </r>
       <r>    -4.0796     0.0000     0.0000 </r>
       <r>    -3.9953     0.0000     0.0000 </r>
       <r>    -3.9110     0.0000     0.0000 </r>
       <r>    -3.8266     0.0000     0.0000 </r>
       <r>    -3.7423     0.0000     0.0000 </r>
       <r>    -3.6580     0.0000     0.0000 </r>
       <r>    -3.5737     0.0000     0.0000 </r>
       <r>    -3.4894     0.0000     0.0000 </r>
       <r>    -3.4050     0.0000     0.0000 </r>
       <r>    -3.3207     0.0000     0.0000 </r>
       <r>    -3.2364     0.0000     0.0000 </r>
       <r>    -3.1521     0.0000     0.0000 </r>
       <r>    -3.0678     0.0000     0.0000 </r>
       <r>    -2.9834     0.0000     0.0000 </r>
       <r>    -2.8991     0.0000     0.0000 </r>
       <r>    -2.8148     0.0147     0.0012 </r>
       <r>    -2.7305     0.0954     0.0093 </r>
       <r>    -2.6462     0.1272     0.0200 </r>
       <r>    -2.5618     0.0133     0.0211 </r>
       <r>    -2.4775     0.1018     0.0297 </r>
       <r>    -2.3932     0.0589     0.0347 </r>
       <r>    -2.3089     0.0086     0.0354 </r>
       <r>    -2.2246     0.1191     0.0454 </r>
       <r>    -2.1402     0.0787     0.0521 </r>
       <r>    -2.0559     0.0405     0.0555 </r>
       <r>    -1.9716     0.0007     0.0556 </r>
       <r>    -1.8873     0.0012     0.0557 </r>
       <r>    -1.8030     0.1694     0.0699 </r>
       <r>    -1.7187     0.6918     0.1283 </r>
       <r>    -1.6343     0.6021     0.1790 </r>
       <r>    -1.5500     0.0934     0.1869 </r>
       <r>    -1.4657     0.7450     0.2497 </r>
       <r>    -1.3814     0.1678     0.2639 </r>
       <r>    -1.2971     0.1579     0.2772 </r>
       <r>    -1.2127     0.7709     0.3422 </r>
       <r>    -1.1284     0.4313     0.3786 </r>
       <r>    -1.0441     0.1219     0.3888 </r>
       <r>    -0.9598     0.0005     0.3889 </r>
       <r>    -0.8755     0.0000     0.3889 </r>
       <r>    -0.7911     0.0000     0.3889 </r>
       <r>    -0.7068     0.0000     0.3889 </r>
       <r>    -0.6225     0.0000     0.3889 </r>
       <r>    -0.5382     0.0000     0.3889 </r>
       <r>    -0.4539     0.0000     0.3889 </r>
       <r>    -0.3695     0.0000     0.3889 </r>
       <r>    -0.2852     0.0000     0.3889 </r>
       <r>    -0.2009     0.0000     0.3889 </r>
       <r>    -0.1166     0.0083     0.3896 </r>
       <r>    -0.0323     0.3409     0.4183 </r>
       <r>     0.0521     0.9105     0.4951 </r>
       <r>     0.1364     0.3760     0.5268 </r>
       <r>     0.2207     1.7691     0.6760 </r>
       <r>     0.3050     1.5762     0.8089 </r>
       <r>     0.3893     3.1356     1.0733 </r>
       <r>     0.4737     1.4483     1.1954 </r>
       <r>     0.5580     0.3096     1.2215 </r>
       <r>     0.6423     0.0085     1.2222 </r>
       <r>     0.7266     0.0000     1.2222 </r>
       <r>     0.8109     0.0004     1.2223 </r>
       <r>     0.8952     0.4304     1.2586 </r>
       <r>     0.9796     5.4341     1.7167 </r>
       <r>     1.0639     2.0274     1.8877 </r>
       <r>     1.1482     0.0142     1.8889 </r>
       <r>     1.2325     0.0000     1.8889 </r>
       <r>     1.3168     0.0000     1.8889 </r>
       <r>     1.4012     0.0055     1.8894 </r>
       <r>     1.4855     0.4404     1.9265 </r>
       <r>     1.5698     1.2573     2.0325 </r>
       <r>     1.6541     1.6543     2.1720 </r>
       <r>     1.7384     4.6669     2.5655 </r>
       <r>     1.8228     7.6164     3.2077 </r>
       <r>     1.9071     6.4477     3.7514 </r>
       <r>     1.9914     4.5047     4.1312 </r>
       <r>     2.0757     0.8804     4.2055 </r>
       <r>     2.1600     0.7730     4.2706 </r>
       <r>     2.2444     2.2544     4.4607 </r>
       <r>     2.3287     3.7396     4.7761 </r>
       <r>     2.4130     1.7989     4.9277 </r>
       <r>     2.4973     0.7308     4.9894 </r>
       <r>     2.5816     2.1291     5.1689 </r>
       <r>     2.6660     3.1067     5.4308 </r>
       <r>     2.7503     6.5450     5.9827 </r>
       <r>     2.8346     2.9478     6.2312 </r>
       <r>     2.9189     2.8466     6.4713 </r>
       <r>     3.0032     4.5160     6.8521 </r>
       <r>     3.0876     4.4538     7.2276 </r>
       <r>     3.1719     8.6417     7.9563 </r>
       <r>     3.2562     3.6850     8.2670 </r>
       <r>     3.3405     4.0665     8.6099 </r>
       <r>     3.4248     2.9860     8.8616 </r>
       <r>     3.5091     5.2678     9.3058 </r>
       <r>     3.5935     4.7738     9.7083 </r>
       <r>     3.6778     1.1203     9.8028 </r>
       <r>     3.7621     2.2167     9.9897 </r>
       <r>     3.8464     2.2774    10.1818 </r>
       <r>     3.9307     0.7601    10.2458 </r>
       <r>     4.0151     2.5583    10.4616 </r>
       <r>     4.0994     4.4681    10.8383 </r>
       <r>     4.1837     0.8113    10.9067 </r>
       <r>     4.2680     0.0356    10.9097 </r>
       <r>     4.3523     0.0000    10.9097 </r>
       <r>     4.4367     0.0000    10.9097 </r>
       <r>     4.5210     0.0252    10.9118 </r>
       <r>     4.6053     1.0188    10.9978 </r>
       <r>     4.6896     1.4067    11.1164 </r>
       <r>     4.7739     0.1836    11.1318 </r>
       <r>     4.8583     0.0011    11.1319 </r>
       <r>     4.9426     0.0003    11.1320 </r>
       <r>     5.0269     0.1487    11.1445 </r>
       <r>     5.1112     0.7521    11.2079 </r>
       <r>     5.1955     0.0969    11.2161 </r>
       <r>     5.2799     0.3364    11.2445 </r>
       <r>     5.3642     0.4352    11.2812 </r>
       <r>     5.4485     0.3911    11.3141 </r>
       <r>     5.5328     0.1626    11.3278 </r>
       <r>     5.6171     0.4349    11.3645 </r>
       <r>     5.7015     0.1981    11.3812 </r>
       <r>     5.7858     0.0086    11.3819 </r>
       <r>     5.8701     0.0106    11.3828 </r>
       <r>     5.9544     0.1223    11.3931 </r>
       <r>     6.0387     0.1152    11.4029 </r>
       <r>     6.1230     1.6652    11.5433 </r>
       <r>     6.2074     2.0141    11.7131 </r>
       <r>     6.2917     0.3272    11.7407 </r>
       <r>     6.3760     1.6492    11.8797 </r>
       <r>     6.4603     0.6729    11.9365 </r>
       <r>     6.5446     0.0569    11.9413 </r>
       <r>     6.6290     1.2421    12.0460 </r>
       <r>     6.7133     0.7844    12.1122 </r>
       <r>     6.7976     0.7559    12.1759 </r>
       <r>     6.8819     0.9453    12.2556 </r>
       <r>     6.9662     0.2617    12.2777 </r>
       <r>     7.0506     0.0015    12.2778 </r>
       <r>     7.1349     0.0813    12.2847 </r>
       <r>     7.2192     0.3735    12.3161 </r>
       <r>     7.3035     0.0391    12.3194 </r>
       <r>     7.3878     0.0060    12.3199 </r>
       <r>     7.4722     0.4380    12.3569 </r>
       <r>     7.5565     0.5453    12.4029 </r>
       <r>     7.6408     0.5548    12.4496 </r>
       <r>     7.7251     0.4271    12.4857 </r>
       <r>     7.8094     0.0055    12.4861 </r>
       <r>     7.8938     0.0001    12.4861 </r>
       <r>     7.9781     0.0769    12.4926 </r>
       <r>     8.0624     0.7461    12.5555 </r>
       <r>     8.1467     0.1648    12.5694 </r>
       <r>     8.2310     0.0004    12.5694 </r>
       <r>     8.3154     0.0125    12.5705 </r>
       <r>     8.3997     0.3167    12.5972 </r>
       <r>     8.4840     0.1637    12.6110 </r>
       <r>     8.5683     0.0012    12.6111 </r>
       <r>     8.6526     0.0000    12.6111 </r>
       <r>     8.7369     0.0221    12.6130 </r>
       <r>     8.8213     0.6176    12.6651 </r>
       <r>     8.9056     0.3457    12.6942 </r>
       <r>     8.9899     0.0028    12.6944 </r>
       <r>     9.0742     0.0000    12.6944 </r>
       <r>     9.1585     0.0000    12.6944 </r>
       <r>     9.2429     0.0000    12.6944 </r>
       <r>     9.3272     0.0000    12.6944 </r>
       <r>     9.4115     0.0000    12.6944 </r>
       <r>     9.4958     0.0088    12.6952 </r>
       <r>     9.5801     0.4919    12.7367 </r>
       <r>     9.6645     0.4831    12.7774 </r>
       <r>     9.7488     0.3843    12.8098 </r>
       <r>     9.8331     0.5904    12.8596 </r>
       <r>     9.9174     0.0181    12.8611 </r>
       <r>    10.0017     0.0089    12.8619 </r>
       <r>    10.0861     0.4306    12.8982 </r>
       <r>    10.1704     1.1099    12.9918 </r>
       <r>    10.2547     1.7008    13.1352 </r>
       <r>    10.3390     0.6031    13.1860 </r>
       <r>    10.4233     1.2090    13.2880 </r>
       <r>    10.5077     0.6105    13.3394 </r>
       <r>    10.5920     0.8695    13.4128 </r>
       <r>    10.6763     0.2889    13.4371 </r>
       <r>    10.7606     0.3576    13.4673 </r>
       <r>    10.8449     0.3758    13.4990 </r>
       <r>    10.9293     0.0768    13.5054 </r>
       <r>    11.0136     0.3858    13.5380 </r>
       <r>    11.0979     0.1261    13.5486 </r>
       <r>    11.1822     0.2309    13.5681 </r>
       <r>    11.2665     1.6501    13.7072 </r>
       <r>    11.3508     0.3421    13.7360 </r>
       <r>    11.4352     0.0013    13.7361 </r>
       <r>    11.5195     0.1152    13.7459 </r>
       <r>    11.6038     0.3639    13.7765 </r>
       <r>    11.6881     0.3540    13.8064 </r>
       <r>    11.7724     0.5565    13.8533 </r>
       <r>    11.8568     0.2565    13.8750 </r>
       <r>    11.9411     1.4383    13.9962 </r>
       <r>    12.0254     1.6938    14.1390 </r>
       <r>    12.1097     0.4828    14.1798 </r>
       <r>    12.1940     0.4019    14.2136 </r>
       <r>    12.2784     0.2923    14.2383 </r>
       <r>    12.3627     0.2167    14.2566 </r>
       <r>    12.4470     0.1023    14.2652 </r>
       <r>    12.5313     0.6600    14.3208 </r>
       <r>    12.6156     1.6046    14.4561 </r>
       <r>    12.7000     1.5922    14.5904 </r>
       <r>    12.7843     0.8033    14.6581 </r>
       <r>    12.8686     0.2280    14.6773 </r>
       <r>    12.9529     0.9925    14.7610 </r>
       <r>    13.0372     1.3512    14.8750 </r>
       <r>    13.1216     0.1026    14.8836 </r>
       <r>    13.2059     1.1515    14.9807 </r>
       <r>    13.2902     1.2723    15.0880 </r>
       <r>    13.3745     0.0271    15.0903 </r>
       <r>    13.4588     0.0000    15.0903 </r>
       <r>    13.5432     0.0000    15.0903 </r>
       <r>    13.6275     0.0000    15.0903 </r>
       <r>    13.7118     0.0000    15.0903 </r>
       <r>    13.7961     0.0000    15.0903 </r>
       <r>    13.8804     0.0096    15.0911 </r>
       <r>    13.9647     0.5037    15.1336 </r>
       <r>    14.0491     0.4676    15.1730 </r>
       <r>    14.1334     0.0074    15.1736 </r>
       <r>    14.2177     0.0000    15.1736 </r>
       <r>    14.3020     0.0161    15.1750 </r>
       <r>    14.3863     0.9040    15.2512 </r>
       <r>    14.4707     1.1642    15.3494 </r>
       <r>    14.5550     0.0570    15.3542 </r>
       <r>    14.6393     0.0138    15.3553 </r>
       <r>    14.7236     0.3226    15.3825 </r>
       <r>    14.8079     0.1995    15.3993 </r>
       <r>    14.8923     0.8204    15.4685 </r>
       <r>    14.9766     1.0055    15.5533 </r>
       <r>    15.0609     0.1089    15.5625 </r>
       <r>    15.1452     0.0002    15.5625 </r>
       <r>    15.2295     0.0768    15.5690 </r>
       <r>    15.3139     0.7461    15.6319 </r>
       <r>    15.3982     0.1650    15.6458 </r>
       <r>    15.4825     0.0004    15.6458 </r>
       <r>    15.5668     0.0000    15.6458 </r>
       <r>    15.6511     0.0000    15.6458 </r>
       <r>    15.7355     0.0000    15.6458 </r>
       <r>    15.8198     0.0000    15.6458 </r>
       <r>    15.9041     0.0000    15.6458 </r>
       <r>    15.9884     0.0000    15.6458 </r>
       <r>    16.0727     0.0000    15.6458 </r>
       <r>    16.1571     0.0000    15.6458 </r>
       <r>    16.2414     0.0000    15.6458 </r>
       <r>    16.3257     0.0000    15.6458 </r>
       <r>    16.4100     0.0000    15.6458 </r>
       <r>    16.4943     0.0000    15.6458 </r>
       <r>    16.5786     0.0000    15.6458 </r>
       <r>    16.6630     0.0000    15.6458 </r>
       <r>    16.7473     0.0450    15.6496 </r>
       <r>    16.8316     0.7027    15.7089 </r>
       <r>    16.9159     0.2424    15.7293 </r>
       <r>    17.0002     0.0985    15.7376 </r>
       <r>    17.0846     0.0637    15.7430 </r>
       <r>    17.1689     0.0006    15.7431 </r>
       <r>    17.2532     0.0000    15.7431 </r>
       <r>    17.3375     0.0000    15.7431 </r>
       <r>    17.4218     0.0000    15.7431 </r>
       <r>    17.5062     0.0000    15.7431 </r>
       <r>    17.5905     0.0000    15.7431 </r>
       <r>    17.6748     0.0000    15.7431 </r>
       <r>    17.7591     0.0000    15.7431 </r>
       <r>    17.8434     0.0034    15.7433 </r>
       <r>    17.9278     0.3692    15.7745 </r>
       <r>    18.0121     0.5968    15.8248 </r>
       <r>    18.0964     0.0189    15.8264 </r>
       <r>    18.1807     0.0000    15.8264 </r>
       <r>    18.2650     0.0000    15.8264 </r>
       <r>    18.3494     0.0000    15.8264 </r>
       <r>    18.4337     0.0000    15.8264 </r>
       <r>    18.5180     0.0089    15.8271 </r>
       <r>    18.6023     0.2991    15.8524 </r>
       <r>    18.6866     0.6091    15.9037 </r>
       <r>    18.7710     0.5748    15.9522 </r>
       <r>    18.8553     0.0700    15.9581 </r>
       <r>    18.9396     0.0030    15.9583 </r>
       <r>    19.0239     0.0000    15.9583 </r>
       <r>    19.1082     0.0000    15.9583 </r>
       <r>    19.1925     0.0000    15.9583 </r>
       <r>    19.2769     0.0000    15.9583 </r>
       <r>    19.3612     0.0000    15.9583 </r>
       <r>    19.4455     0.0000    15.9583 </r>
       <r>    19.5298     0.0000    15.9583 </r>
       <r>    19.6141     0.0000    15.9583 </r>
       <r>    19.6985     0.0000    15.9583 </r>
       <r>    19.7828     0.0000    15.9583 </r>
       <r>    19.8671     0.0003    15.9584 </r>
       <r>    19.9514     0.0950    15.9664 </r>
       <r>    20.0357     0.3669    15.9973 </r>
       <r>    20.1201     0.0319    16.0000 </r>
       <r>    20.2044     0.0000    16.0000 </r>
       <r>    20.2887     0.0000    16.0000 </r>
       <r>    20.3730     0.0000    16.0000 </r>
       <r>    20.4573     0.0000    16.0000 </r>
       <r>    20.5417     0.0000    16.0000 </r>
       <r>    20.6260     0.0000    16.0000 </r>
       <r>    20.7103     0.0000    16.0000 </r>
       <r>    20.7946     0.0000    16.0000 </r>
       <r>    20.8789     0.0000    16.0000 </r>
       <r>    20.9633     0.0000    16.0000 </r>
       <r>    21.0476     0.0000    16.0000 </r>
       <r>    21.1319     0.0000    16.0000 </r>
      </set>
     </set>
    </array>
   </total>
  </dos>
 </calculation>
 <structure name="finalpos" >
  <crystal>
   <varray name="basis" >
    <v>       2.47000000       0.00000000       0.00000000 </v>
    <v>      -1.23500000       2.13908275       0.00000000 </v>
    <v>       0.00000000       0.00000000       8.09000000 </v>
   </varray>
   <i name="volume">     42.74379318 </i>
   <varray name="rec_basis" >
    <v>       0.40485830       0.23374505       0.00000000 </v>
    <v>       0.00000000       0.46749010       0.00000000 </v>
    <v>       0.00000000       0.00000000       0.12360939 </v>
   </varray>
  </crystal>
  <varray name="positions" >
   <v>       0.00000000       0.00000000       0.00000000 </v>
   <v>       0.33333333       0.66666667       0.50000000 </v>
  </varray>
 </structure>
</modeling>
