Pt-hcc                                  
   1.00000000000000     
     2.783227    0.000000    0.000000
    -1.391613    2.410345    0.000000
     0.000000    0.000000    4.821876
   Pt
     2
Direct
  0.000000  0.000000  0.000000
  0.333333  0.666667  0.500000
 
   40   40   72
  283.17      282.82      281.13      276.41      266.56      249.92      226.02      195.95      162.23      128.16    
  96.957      70.958      51.180      37.307      28.069      21.803      17.543      14.795      13.125      12.242    
  11.964      12.242      13.125      14.795      17.543      21.804      28.066      37.310      51.179      70.959    
  96.957      128.16      162.23      195.95      226.02      249.92      266.56      276.41      281.13      282.82    
  282.82      282.82      281.79      278.55      271.17      257.73      237.19      209.87      177.65      143.52    
  110.80      82.292      59.651      43.161      31.964      24.481      19.343      15.931      13.788      12.551    
  11.991      11.990      12.552      13.787      15.933      19.341      24.483      31.963      43.160      59.651    
  82.291      110.80      143.52      177.65      209.87      237.19      257.73      271.17      278.55      281.79    
  281.13      281.80      281.13      278.55      272.57      261.39      243.64      219.10      188.99      155.81    
  122.71      92.698      67.889      49.130      36.010      27.238      21.237      17.152      14.513      12.907    
  12.056      11.788      12.055      12.907      14.513      17.152      21.237      27.237      36.012      49.128    
  67.891      92.697      122.71      155.81      188.99      219.10      243.64      261.39      272.58      278.55    
  276.41      278.57      278.57      276.41      271.17      261.39      245.74      223.68      195.89      164.33    
  131.82      101.32      75.206      54.746      39.976      29.946      23.128      18.409      15.275      13.298    
  12.154      11.633      11.633      12.155      13.297      15.276      18.407      23.131      29.944      39.977    
  54.745      75.207      101.32      131.82      164.33      195.89      223.68      245.74      261.39      271.17    
  266.56      271.20      272.61      271.20      266.56      257.73      243.64      223.68      198.19      168.67    
  137.52      107.47      80.954      59.510      43.549      32.453      24.907      19.632      16.039      13.707    
  12.281      11.519      11.280      11.518      12.281      13.706      16.040      19.630      24.908      32.453    
  43.548      59.511      80.954      107.47      137.52      168.67      198.19      223.68      243.64      257.73    
  249.92      257.77      261.45      261.44      257.77      249.92      237.19      219.10      195.89      168.67    
  139.46      110.67      84.621      62.971      46.396      34.576      26.456      20.743      16.761      14.111    
  12.423      11.441      10.988      10.989      11.440      12.424      14.109      16.762      20.742      26.456    
  34.577      46.395      62.972      84.620      110.67      139.45      168.67      195.89      219.10      237.19    
  226.02      237.22      243.70      245.81      243.70      237.22      226.02      209.87      188.99      164.33    
  137.52      110.67      85.880      64.792      48.233      36.124      27.664      21.661      17.393      14.482    
  12.570      11.391      10.752      10.552      10.752      11.391      12.571      14.482      17.392      21.662    
  27.663      36.125      48.232      64.792      85.879      110.67      137.52      164.33      188.99      209.87    
  195.95      209.89      219.15      223.74      223.74      219.15      209.89      195.95      177.65      155.81    
  131.82      107.47      84.621      64.792      48.867      36.942      28.434      22.318      17.886      14.793    
  12.707      11.363      10.566      10.196      10.196      10.566      11.363      12.707      14.793      17.885    
  22.319      28.434      36.942      48.867      64.792      84.620      107.47      131.82      155.81      177.65    
  162.23      177.65      189.01      195.91      198.23      195.91      189.01      177.65      162.23      143.52    
  122.71      101.32      80.955      62.971      48.232      36.942      28.699      22.661      18.200      15.017    
  12.817      11.350      10.424      9.9163      9.7533      9.9163      10.424      11.350      12.816      15.018    
  18.199      22.661      28.699      36.942      48.232      62.972      80.954      101.32      122.71      143.52    
  128.16      143.50      155.79      164.31      168.66      168.66      164.31      155.79      143.50      128.16    
  110.80      92.697      75.208      59.509      46.396      36.124      28.434      22.661      18.308      15.135    
  12.889      11.345      10.325      9.7064      9.4145      9.4144      9.7064      10.325      11.345      12.888    
  15.136      18.307      22.661      28.434      36.125      46.395      59.511      75.207      92.697      110.80    
  96.957      110.76      122.65      131.75      137.45      139.39      137.45      131.75      122.65      110.76    
  96.957      82.292      67.890      54.744      43.550      34.576      27.664      22.319      18.200      15.135    
  12.914      11.344      10.265      9.5670      9.1727      9.0466      9.1728      9.5670      10.265      11.345    
  12.913      15.136      18.199      22.319      27.663      34.577      43.548      54.745      67.891      82.291    
  70.959      82.246      92.616      101.22      107.35      110.54      110.54      107.35      101.22      92.616    
  82.247      70.959      59.650      49.129      39.978      32.451      26.457      21.661      17.886      15.017    
  12.889      11.344      10.246      9.4965      9.0284      8.8028      8.8031      9.0281      9.4970      10.246    
  11.345      12.888      15.018      17.885      21.662      26.456      32.453      39.977      49.128      59.651    
  51.179      59.601      67.796      75.075      80.797      84.448      85.702      84.448      80.798      75.076    
  67.796      59.600      51.179      43.162      36.010      29.944      24.909      20.741      17.394      14.792    
  12.817      11.345      10.266      9.4967      8.9798      8.6818      8.5837      8.6819      8.9795      9.4970    
  10.265      11.345      12.816      14.793      17.392      20.742      24.908      29.944      36.012      43.160    
  37.310      43.113      49.033      54.607      59.337      62.775      64.583      64.583      62.774      59.336    
  54.606      49.034      43.115      37.309      31.961      27.240      23.129      19.630      16.762      14.481    
  12.707      11.349      10.325      9.5664      9.0285      8.6815      8.5115      8.5112      8.6819      9.0281    
  9.5670      10.325      11.350      12.707      14.482      16.762      19.630      23.131      27.237      31.963    
  28.066      31.922      35.926      39.846      43.378      46.195      48.013      48.642      48.014      46.196    
  43.380      39.847      35.924      31.920      28.069      24.484      21.235      18.409      16.039      14.110    
  12.571      11.363      10.424      9.7064      9.1731      8.8030      8.5839      8.5115      8.5837      8.8031    
  9.1728      9.7064      10.424      11.363      12.571      14.109      16.040      18.407      21.237      24.483    
  21.804      24.451      27.164      29.832      32.304      34.396      35.921      36.725      36.725      35.920    
  34.394      32.302      29.832      27.168      24.451      21.802      19.342      17.154      15.275      13.706    
  12.424      11.391      10.566      9.9158      9.4145      9.0461      8.8030      8.6815      8.6818      8.8028    
  9.0466      9.4144      9.9163      10.566      11.391      12.424      13.706      15.276      17.152      19.341    
  17.543      19.315      21.180      23.041      24.785      26.301      27.484      28.239      28.499      28.239    
  27.485      26.303      24.786      23.039      21.178      19.316      17.545      15.932      14.512      13.298    
  12.281      11.440      10.753      10.196      9.7537      9.4145      9.1731      9.0285      8.9798      9.0284    
  9.1727      9.4145      9.7533      10.196      10.752      11.440      12.281      13.297      14.513      15.933    
  14.795      15.913      17.109      18.338      19.533      20.619      21.518      22.160      22.495      22.494    
  22.159      21.516      20.618      19.533      18.339      17.110      15.912      14.794      13.788      12.908    
  12.154      11.519      10.989      10.552      10.196      9.9158      9.7064      9.5664      9.4967      9.4965    
  9.5670      9.7064      9.9163      10.196      10.552      10.989      11.518      12.155      12.907      13.787    
  13.125      13.772      14.480      15.223      15.967      16.669      17.281      17.760      18.065      18.169    
  18.065      17.761      17.283      16.669      15.966      15.222      14.480      13.773      13.126      12.552    
  12.055      11.633      11.280      10.989      10.753      10.566      10.424      10.325      10.266      10.246    
  10.265      10.325      10.424      10.566      10.752      10.988      11.280      11.633      12.055      12.552    
  12.242      12.541      12.882      13.258      13.651      14.041      14.400      14.700      14.916      15.030    
  15.030      14.916      14.698      14.398      14.041      13.652      13.259      12.882      12.540      12.241    
  11.990      11.788      11.633      11.519      11.440      11.391      11.363      11.349      11.345      11.344    
  11.344      11.345      11.350      11.363      11.391      11.441      11.519      11.633      11.788      11.990    
  11.964      11.979      12.035      12.123      12.240      12.373      12.511      12.639      12.744      12.812    
  12.836      12.813      12.745      12.640      12.511      12.373      12.239      12.123      12.034      11.980    
  11.965      11.990      12.055      12.154      12.281      12.424      12.571      12.707      12.817      12.889    
  12.914      12.889      12.817      12.707      12.570      12.423      12.281      12.154      12.056      11.991    
  12.242      11.980      11.768      11.605      11.485      11.401      11.347      11.315      11.300      11.293    
  11.291      11.291      11.293      11.299      11.315      11.347      11.401      11.485      11.606      11.769    
  11.980      12.241      12.552      12.908      13.298      13.706      14.110      14.481      14.792      15.017    
  15.135      15.135      15.017      14.793      14.482      14.111      13.707      13.298      12.907      12.551    
  13.125      12.539      12.035      11.606      11.249      10.955      10.717      10.531      10.389      10.291    
  10.233      10.213      10.233      10.291      10.390      10.531      10.718      10.955      11.248      11.606    
  12.034      12.540      13.126      13.788      14.512      15.275      16.039      16.762      17.394      17.886    
  18.200      18.308      18.200      17.886      17.393      16.761      16.039      15.275      14.513      13.788    
  14.795      13.773      12.881      12.123      11.485      10.955      10.520      10.168      9.8912      9.6851    
  9.5479      9.4794      9.4791      9.5478      9.6849      9.8908      10.168      10.520      10.955      11.485    
  12.123      12.882      13.773      14.794      15.932      17.154      18.409      19.630      20.741      21.661    
  22.319      22.661      22.661      22.318      21.661      20.743      19.632      18.409      17.152      15.931    
  17.543      15.911      14.481      13.258      12.239      11.401      10.717      10.168      9.7314      9.3986    
  9.1628      9.0213      8.9745      9.0215      9.1628      9.3989      9.7318      10.168      10.718      11.401    
  12.239      13.259      14.480      15.912      17.545      19.342      21.235      23.129      24.909      26.457    
  27.664      28.434      28.699      28.434      27.664      26.456      24.907      23.128      21.237      19.343    
  21.803      19.317      17.109      15.223      13.652      12.372      11.347      10.531      9.8912      9.3991    
  9.0387      8.8014      8.6829      8.6830      8.8013      9.0387      9.3989      9.8908      10.531      11.347    
  12.373      13.652      15.222      17.110      19.316      21.802      24.484      27.240      29.944      32.451    
  34.576      36.124      36.942      36.942      36.124      34.576      32.453      29.946      27.238      24.481    
  28.069      24.448      21.180      18.339      15.966      14.042      12.510      11.315      10.390      9.6847    
  9.1628      8.8011      8.5879      8.5171      8.5877      8.8013      9.1628      9.6849      10.390      11.315    
  12.511      14.041      15.966      18.339      21.178      24.451      28.069      31.961      36.010      39.978    
  43.550      46.396      48.232      48.867      48.233      46.396      43.549      39.976      36.010      31.964    
  37.307      31.923      27.166      23.038      19.535      16.668      14.400      12.640      11.300      10.291    
  9.5478      9.0217      8.6829      8.5170      8.5171      8.6830      9.0215      9.5478      10.291      11.299    
  12.640      14.398      16.669      19.533      23.039      27.168      31.920      37.309      43.162      49.129    
  54.744      59.509      62.971      64.792      64.792      62.971      59.510      54.746      49.130      43.161    
  51.180      43.114      35.923      29.835      24.784      20.619      17.282      14.699      12.744      11.293    
  10.233      9.4788      8.9748      8.6829      8.5879      8.6829      8.9745      9.4791      10.233      11.293    
  12.745      14.698      17.283      20.618      24.786      29.832      35.924      43.115      51.179      59.650    
  67.890      75.208      80.955      84.621      85.880      84.621      80.954      75.206      67.889      59.651    
  70.958      59.601      49.035      39.845      32.304      26.302      21.517      17.761      14.915      12.813    
  11.291      10.214      9.4788      9.0217      8.8011      8.8014      9.0213      9.4794      10.213      11.291    
  12.813      14.916      17.761      21.516      26.303      32.302      39.847      49.034      59.600      70.959    
  82.292      92.697      101.32      107.47      110.67      110.67      107.47      101.32      92.698      82.292    
  96.957      82.247      67.795      54.608      43.379      34.395      27.485      22.159      18.066      15.029    
  12.837      11.291      10.233      9.5478      9.1628      9.0387      9.1628      9.5479      10.233      11.291    
  12.836      15.030      18.065      22.159      27.485      34.394      43.380      54.606      67.796      82.247    
  96.957      110.80      122.71      131.82      137.52      139.46      137.52      131.82      122.71      110.80    
  128.16      110.76      92.617      75.075      59.337      46.196      35.919      28.240      22.494      18.170    
  15.029      12.813      11.293      10.291      9.6847      9.3991      9.3986      9.6851      10.291      11.293    
  12.812      15.030      18.169      22.494      28.239      35.920      46.196      59.336      75.076      92.616    
  110.76      128.16      143.52      155.81      164.33      168.67      168.67      164.33      155.81      143.52    
  162.23      143.50      122.65      101.22      80.797      62.774      48.014      36.724      28.499      22.494    
  18.066      14.915      12.744      11.300      10.390      9.8912      9.7314      9.8912      10.389      11.300    
  12.744      14.916      18.065      22.495      28.499      36.725      48.014      62.774      80.798      101.22    
  122.65      143.50      162.23      177.65      188.99      195.89      198.19      195.89      188.99      177.65    
  195.95      177.65      155.79      131.75      107.35      84.449      64.582      48.643      36.724      28.240    
  22.159      17.761      14.699      12.640      11.315      10.531      10.168      10.168      10.531      11.315    
  12.639      14.700      17.760      22.160      28.239      36.725      48.642      64.583      84.448      107.35    
  131.75      155.79      177.65      195.95      209.87      219.10      223.68      223.68      219.10      209.87    
  226.02      209.89      189.01      164.31      137.45      110.54      85.703      64.582      48.014      35.919    
  27.485      21.517      17.282      14.400      12.510      11.347      10.717      10.520      10.717      11.347    
  12.511      14.400      17.281      21.518      27.484      35.921      48.013      64.583      85.702      110.54    
  137.45      164.31      189.01      209.89      226.02      237.19      243.64      245.74      243.64      237.19    
  249.92      237.22      219.15      195.91      168.66      139.39      110.54      84.449      62.774      46.196    
  34.395      26.302      20.619      16.668      14.042      12.372      11.401      10.955      10.955      11.401    
  12.373      14.041      16.669      20.619      26.301      34.396      46.195      62.775      84.448      110.54    
  139.39      168.66      195.91      219.15      237.22      249.92      257.73      261.39      261.39      257.73    
  266.56      257.77      243.70      223.74      198.23      168.66      137.45      107.35      80.797      59.337    
  43.379      32.304      24.784      19.535      15.966      13.652      12.239      11.485      11.249      11.485    
  12.240      13.651      15.967      19.533      24.785      32.304      43.378      59.337      80.797      107.35    
  137.45      168.66      198.23      223.74      243.70      257.77      266.56      271.17      272.57      271.17    
  276.41      271.20      261.45      245.81      223.74      195.91      164.31      131.75      101.22      75.075    
  54.608      39.845      29.835      23.038      18.339      15.223      13.258      12.123      11.606      11.605    
  12.123      13.258      15.223      18.338      23.041      29.832      39.846      54.607      75.075      101.22    
  131.75      164.31      195.91      223.74      245.81      261.44      271.20      276.41      278.55      278.55    
  281.13      278.57      272.61      261.45      243.70      219.15      189.01      155.79      122.65      92.617    
  67.795      49.035      35.923      27.166      21.180      17.109      14.481      12.881      12.035      11.768    
  12.035      12.882      14.480      17.109      21.180      27.164      35.926      49.033      67.796      92.616    
  122.65      155.79      189.01      219.15      243.70      261.45      272.61      278.57      281.13      281.79    
  282.82      281.80      278.57      271.20      257.77      237.22      209.89      177.65      143.50      110.76    
  82.247      59.601      43.114      31.923      24.448      19.317      15.911      13.773      12.539      11.980    
  11.979      12.541      13.772      15.913      19.315      24.451      31.922      43.113      59.601      82.246    
  110.76      143.50      177.65      209.89      237.22      257.77      271.20      278.57      281.80      282.82    
  283.01      282.59      280.69      275.66      265.46      248.51      224.40      194.26      160.61      126.74    
  95.810      70.104      50.593      36.925      27.818      21.626      17.416      14.699      13.047      12.174    
  11.899      12.174      13.047      14.699      17.416      21.627      27.815      36.928      50.591      70.105    
  95.809      126.74      160.61      194.26      224.40      248.51      265.46      275.66      280.69      282.58    
  282.58      282.58      281.42      277.92      270.21      256.45      235.65      208.19      175.98      141.99    
  109.52      81.300      58.943      42.689      31.659      24.271      19.193      15.821      13.702      12.479    
  11.924      11.923      12.480      13.701      15.822      19.191      24.274      31.657      42.688      58.943    
  81.300      109.52      141.99      175.98      208.19      235.65      256.45      270.21      277.92      281.42    
  280.69      281.42      280.69      277.92      271.66      260.18      242.16      217.45      187.30      154.22    
  121.33      91.590      67.071      48.568      35.644      26.995      21.064      17.026      14.418      12.829    
  11.987      11.722      11.987      12.830      14.418      17.027      21.064      26.993      35.646      48.566    
  67.073      91.589      121.33      154.22      187.30      217.45      242.16      260.18      271.66      277.92    
  275.66      277.93      277.93      275.66      270.21      260.18      244.28      222.05      194.19      162.70    
  130.37      100.13      74.294      54.103      39.548      29.667      22.932      18.267      15.170      13.215    
  12.084      11.568      11.567      12.084      13.214      15.171      18.266      22.935      29.664      39.550    
  54.102      74.295      100.13      130.37      162.70      194.19      222.05      244.28      260.18      270.21    
  265.46      270.24      271.70      270.24      265.46      256.45      242.16      222.05      196.50      167.03    
  136.03      106.21      79.973      58.799      43.066      32.137      24.689      19.475      15.924      13.618    
  12.208      11.453      11.218      11.453      12.208      13.617      15.926      19.473      24.691      32.136    
  43.066      58.800      79.973      106.22      136.03      167.03      196.50      222.05      242.16      256.45    
  248.51      256.49      260.23      260.23      256.49      248.51      235.65      217.45      194.19      167.03    
  137.95      109.38      83.597      62.213      45.870      34.228      26.220      20.572      16.637      14.017    
  12.348      11.375      10.928      10.928      11.375      12.349      14.016      16.638      20.572      26.219    
  34.229      45.870      62.214      83.597      109.38      137.95      167.03      194.19      217.45      235.65    
  224.40      235.68      242.23      244.36      242.22      235.68      224.40      208.19      187.30      162.70    
  136.03      109.38      84.842      64.009      47.680      35.752      27.412      21.480      17.261      14.383    
  12.493      11.326      10.693      10.494      10.693      11.325      12.493      14.383      17.260      21.481    
  27.411      35.753      47.679      64.010      84.841      109.38      136.03      162.70      187.30      208.19    
  194.26      208.21      217.50      222.11      222.11      217.50      208.21      194.26      175.98      154.22    
  130.37      106.21      83.598      64.009      48.305      36.557      28.172      22.129      17.748      14.690    
  12.627      11.297      10.507      10.141      10.141      10.507      11.297      12.627      14.691      17.747    
  22.130      28.171      36.557      48.304      64.010      83.597      106.22      130.37      154.22      175.98    
  160.61      175.99      187.33      194.23      196.54      194.23      187.33      175.99      160.61      141.99    
  121.33      100.12      79.974      62.213      47.680      36.557      28.433      22.468      18.058      14.912    
  12.735      11.284      10.366      9.8629      9.7012      9.8629      10.366      11.284      12.735      14.912    
  18.057      22.468      28.432      36.557      47.679      62.214      79.973      100.13      121.33      141.99    
  126.74      141.98      154.20      162.69      167.03      167.03      162.69      154.20      141.98      126.74    
  109.52      91.589      74.296      58.798      45.871      35.752      28.172      22.468      18.164      15.028    
  12.806      11.278      10.267      9.6543      9.3648      9.3647      9.6545      10.267      11.279      12.806    
  15.029      18.164      22.468      28.171      35.753      45.870      58.800      74.295      91.589      109.52    
  95.809      109.49      121.28      130.31      135.97      137.90      135.97      130.32      121.28      109.49    
  95.809      81.300      67.072      54.101      43.068      34.227      27.412      22.129      18.058      15.028    
  12.831      11.277      10.208      9.5159      9.1247      8.9995      9.1247      9.5160      10.208      11.278    
  12.830      15.028      18.057      22.130      27.411      34.228      43.066      54.102      67.073      81.300    
  70.105      81.259      91.517      100.03      106.11      109.27      109.27      106.11      100.03      91.517    
  81.260      70.105      58.942      48.567      39.551      32.135      26.221      21.479      17.748      14.912    
  12.806      11.277      10.189      9.4458      8.9815      8.7573      8.7578      8.9809      9.4465      10.189    
  11.278      12.806      14.913      17.747      21.481      26.219      32.137      39.550      48.566      58.943    
  50.591      58.898      66.987      74.177      79.832      83.443      84.684      83.444      79.833      74.178    
  66.986      58.897      50.591      42.690      35.644      29.665      24.691      20.571      17.262      14.690    
  12.736      11.278      10.209      9.4461      8.9331      8.6372      8.5397      8.6373      8.9328      9.4464    
  10.208      11.279      12.735      14.690      17.260      20.572      24.690      29.664      35.646      42.688    
  36.928      42.645      48.480      53.976      58.643      62.035      63.820      63.820      62.034      58.641    
  53.975      48.481      42.647      36.927      31.656      26.997      22.933      19.473      16.639      14.382    
  12.627      11.283      10.268      9.5154      8.9814      8.6369      8.4680      8.4677      8.6373      8.9811    
  9.5160      10.267      11.284      12.627      14.383      16.638      19.473      22.935      26.993      31.657    
  27.815      31.620      35.567      39.430      42.911      45.687      47.479      48.099      47.480      45.688    
  42.912      39.431      35.565      31.618      27.818      24.274      21.061      18.268      15.925      14.016    
  12.493      11.297      10.366      9.6544      9.1251      8.7575      8.5399      8.4680      8.5398      8.7576    
  9.1247      9.6544      10.366      11.297      12.493      14.015      15.925      18.266      21.064      24.274    
  21.627      24.244      26.928      29.562      32.001      34.063      35.566      36.359      36.359      35.565    
  34.062      31.999      29.562      26.931      24.244      21.624      19.192      17.028      15.170      13.618    
  12.349      11.325      10.508      9.8623      9.3649      8.9990      8.7576      8.6369      8.6372      8.7574    
  8.9996      9.3647      9.8629      10.507      11.326      12.349      13.617      15.171      17.027      19.191    
  17.416      19.168      21.012      22.853      24.579      26.079      27.247      27.994      28.250      27.994    
  27.249      26.080      24.580      22.852      21.010      19.169      17.417      15.821      14.417      13.215    
  12.208      11.375      10.693      10.141      9.7016      9.3648      9.1251      8.9815      8.9331      8.9813    
  9.1247      9.3647      9.7012      10.141      10.693      11.374      12.208      13.215      14.418      15.822    
  14.699      15.805      16.989      18.204      19.387      20.461      21.351      21.986      22.318      22.317    
  21.985      21.349      20.460      19.387      18.206      16.990      15.804      14.698      13.702      12.830    
  12.084      11.454      10.928      10.494      10.141      9.8624      9.6544      9.5153      9.4461      9.4460    
  9.5160      9.6544      9.8629      10.141      10.494      10.928      11.453      12.084      12.830      13.701    
  13.047      13.688      14.390      15.125      15.861      16.556      17.163      17.637      17.938      18.042    
  17.939      17.638      17.164      16.557      15.861      15.124      14.389      13.689      13.048      12.479    
  11.986      11.568      11.217      10.928      10.693      10.507      10.366      10.268      10.209      10.189    
  10.208      10.267      10.366      10.507      10.693      10.927      11.217      11.568      11.987      12.480    
  12.174      12.470      12.809      13.182      13.572      13.957      14.313      14.610      14.825      14.938    
  14.937      14.824      14.609      14.312      13.957      13.572      13.182      12.809      12.470      12.173    
  11.924      11.723      11.568      11.454      11.375      11.325      11.297      11.283      11.278      11.277    
  11.277      11.278      11.284      11.297      11.326      11.376      11.454      11.568      11.722      11.923    
  11.899      11.915      11.970      12.059      12.175      12.308      12.444      12.572      12.676      12.744    
  12.768      12.744      12.677      12.573      12.445      12.307      12.174      12.059      11.970      11.915    
  11.899      11.924      11.986      12.084      12.208      12.349      12.493      12.627      12.736      12.806    
  12.831      12.806      12.735      12.627      12.492      12.348      12.208      12.084      11.987      11.924    
  12.174      11.916      11.707      11.546      11.427      11.344      11.292      11.261      11.246      11.240    