Pt-hcc                                  
   1.00000000000000     
     2.835561    0.000000    0.000000
    -1.417781    2.455668    0.000000
     0.000000    0.000000    4.912544
   Pt
     2
Direct
  0.000000  0.000000  0.000000
  0.333333  0.666667  0.500000
 
   40   40   72
  299.50      299.12      297.23      291.93      280.88      262.30      235.79      202.75      166.14      129.67    
  96.845      70.038      50.082      36.359      27.272      21.072      16.903      14.235      12.622      11.769    
  11.502      11.769      12.623      14.235      16.904      21.070      27.272      36.362      50.080      70.039    
  96.845      129.67      166.13      202.75      235.79      262.30      280.88      291.93      297.23      299.12    
  299.12      299.12      297.97      294.33      286.05      271.02      248.16      218.01      182.82      146.04    
  111.33      81.654      58.576      42.121      31.114      23.717      18.656      15.336      13.260      12.067    
  11.525      11.525      12.068      13.260      15.337      18.654      23.720      31.110      42.122      58.576    
  81.654      111.33      146.04      182.82      218.01      248.16      271.02      286.05      294.33      297.97    
  297.23      297.98      297.23      294.34      287.63      275.11      255.33      228.17      195.17      159.23    
  123.90      92.419      66.917      48.039      35.085      26.450      20.514      16.520      13.960      12.408    
  11.585      11.327      11.584      12.408      13.959      16.522      20.511      26.451      35.086      48.038    
  66.918      92.418      123.90      159.23      195.17      228.17      255.33      275.11      287.63      294.33    
  291.93      294.35      294.35      291.93      286.05      275.11      257.66      233.22      202.70      168.41    
  133.57      101.41      74.382      53.650      38.982      29.128      22.380      17.743      14.697      12.782    
  11.678      11.172      11.173      11.677      12.783      14.697      17.743      22.382      29.126      38.985    
  53.648      74.383      101.41      133.57      168.41      202.70      233.22      257.66      275.11      286.05    
  280.88      286.08      287.67      286.08      280.88      271.02      255.33      233.22      205.22      173.11    
  139.64      107.85      80.283      58.438      42.505      31.596      24.142      18.939      15.439      13.175    
  11.797      11.058      10.828      11.058      11.798      13.175      15.439      18.938      24.145      31.594    
  42.507      58.438      80.284      107.85      139.64      173.11      205.22      233.22      255.33      271.02    
  262.30      271.05      275.16      275.16      271.05      262.30      248.16      228.17      202.70      173.11    
  141.71      111.20      84.063      61.934      45.325      33.680      25.680      20.032      16.141      13.567    
  11.933      10.980      10.541      10.541      10.979      11.934      13.566      16.143      20.030      25.681    
  33.680      45.325      61.934      84.063      111.20      141.71      173.11      202.70      228.17      248.16    
  235.79      248.18      255.38      257.72      255.38      248.18      235.79      218.01      195.17      168.41    
  139.64      111.20      85.364      63.777      47.149      35.199      26.879      20.940      16.758      13.929    
  12.076      10.931      10.309      10.113      10.309      10.931      12.076      13.928      16.759      20.940    
  26.878      35.199      47.149      63.778      85.363      111.20      139.64      168.41      195.17      218.01    
  202.75      218.02      228.21      233.27      233.27      228.21      218.02      202.75      182.82      159.23    
  133.57      107.85      84.064      63.777      47.781      36.001      27.642      21.590      17.242      14.233    
  12.210      10.905      10.127      9.7656      9.7651      10.128      10.905      12.210      14.233      17.242    
  21.591      27.641      36.002      47.780      63.778      84.063      107.85      133.57      159.23      182.82    
  166.13      182.82      195.17      202.71      205.24      202.71      195.17      182.82      166.14      146.04    
  123.90      101.41      80.285      61.933      47.150      36.000      27.904      21.930      17.550      14.454    
  12.319      10.895      9.9901      9.4918      9.3310      9.4918      9.9901      10.894      12.319      14.454    
  17.549      21.931      27.903      36.002      47.149      61.934      80.284      101.41      123.90      146.04    
  129.67      146.01      159.19      168.38      173.08      173.08      168.38      159.19      146.02      129.67    
  111.33      92.419      74.383      58.437      45.326      35.198      27.643      21.930      17.656      14.570    
  12.391      10.892      9.8955      9.2875      8.9986      8.9985      9.2876      9.8956      10.892      12.390    
  14.570      17.656      21.931      27.641      35.199      45.325      58.438      74.383      92.418      111.33    
  96.845      111.29      123.83      133.49      139.56      141.63      139.56      133.49      123.83      111.29    
  96.845      81.654      66.916      53.648      42.507      33.678      26.880      21.590      17.551      14.570    
  12.416      10.893      9.8395      9.1523      8.7614      8.6357      8.7613      9.1523      9.8394      10.893    
  12.415      14.570      17.549      21.591      26.878      33.680      42.507      53.648      66.918      81.654    
  70.039      81.606      92.331      101.29      107.72      111.07      111.07      107.72      101.29      92.332    
  81.607      70.038      58.574      48.040      38.983      31.594      25.682      20.938      17.243      14.453    
  12.391      10.892      9.8216      9.0841      8.6199      8.3945      8.3949      8.6195      9.0845      9.8209    
  10.893      12.390      14.454      17.242      20.940      25.681      31.594      38.985      48.038      58.576    
  50.080      58.525      66.820      74.247      80.120      83.884      85.179      83.884      80.120      74.247    
  66.818      58.524      50.081      42.124      35.083      29.128      24.143      20.030      16.760      14.232    
  12.320      10.892      9.8400      9.0842      8.5724      8.2745      8.1766      8.2745      8.5723      9.0845    
  9.8394      10.892      12.319      14.233      16.759      20.030      24.145      29.126      35.086      42.122    
  36.362      42.075      47.943      53.509      58.264      61.735      63.567      63.566      61.735      58.263    
  53.510      47.945      42.077      36.359      31.111      26.453      22.379      18.940      16.142      13.928    
  12.210      10.894      9.8958      9.1518      8.6198      8.2745      8.1043      8.1042      8.2745      8.6195    
  9.1523      9.8956      10.894      12.210      13.928      16.143      18.938      22.382      26.451      31.110    
  27.272      31.071      35.004      38.857      42.340      45.128      46.934      47.559      46.935      45.129    
  42.341      38.856      35.001      31.072      27.276      23.717      20.511      17.745      15.438      13.567    
  12.076      10.905      9.9906      9.2875      8.7617      8.3948      8.1765      8.1043      8.1766      8.3949    
  8.7613      9.2876      9.9901      10.905      12.076      13.566      15.439      17.743      20.511      23.720    
  21.070      23.689      26.383      29.018      31.451      33.506      35.003      35.794      35.793      35.002    
  33.505      31.451      29.021      26.386      23.686      21.069      18.657      16.521      14.696      13.176    
  11.934      10.931      10.128      9.4912      8.9987      8.6352      8.3948      8.2745      8.2745      8.3945    
  8.6357      8.9985      9.4918      10.128      10.931      11.934      13.175      14.697      16.522      18.654    
  16.904      18.631      20.460      22.298      24.031      25.538      26.712      27.459      27.716      27.460    
  26.713      25.539      24.029      22.295      20.460      18.633      16.904      15.335      13.959      12.783    
  11.796      10.980      10.309      9.7654      9.3314      8.9987      8.7617      8.6198      8.5724      8.6199    
  8.7614      8.9986      9.3310      9.7651      10.309      10.979      11.798      12.783      13.959      15.337    
  14.235      15.319      16.483      17.681      18.850      19.919      20.807      21.443      21.776      21.775    
  21.442      20.805      19.919      18.852      17.682      16.483      15.318      14.235      13.261      12.408    
  11.677      11.058      10.541      10.113      9.7654      9.4912      9.2875      9.1518      9.0842      9.0841    
  9.1523      9.2875      9.4918      9.7656      10.113      10.541      11.058      11.677      12.408      13.260    
  12.623      13.247      13.931      14.651      15.375      16.060      16.661      17.131      17.431      17.534    
  17.431      17.132      16.661      16.060      15.374      14.651      13.931      13.248      12.623      12.067    
  11.584      11.173      10.827      10.541      10.309      10.128      9.9906      9.8958      9.8400      9.8216    
  9.8395      9.8955      9.9901      10.127      10.309      10.541      10.828      11.173      11.584      12.068    
  11.769      12.058      12.388      12.750      13.129      13.507      13.858      14.153      14.366      14.479    
  14.478      14.366      14.152      13.858      13.508      13.130      12.750      12.387      12.058      11.769    
  11.525      11.327      11.173      11.058      10.980      10.931      10.905      10.894      10.892      10.892    
  10.893      10.892      10.895      10.905      10.931      10.980      11.058      11.172      11.327      11.525    
  11.502      11.517      11.568      11.652      11.764      11.893      12.028      12.156      12.260      12.329    
  12.354      12.330      12.261      12.156      12.028      11.893      11.763      11.652      11.568      11.517    
  11.502      11.525      11.584      11.677      11.796      11.934      12.076      12.210      12.320      12.391    
  12.416      12.391      12.319      12.210      12.076      11.933      11.797      11.678      11.585      11.525    
  11.769      11.517      11.312      11.152      11.031      10.949      10.897      10.869      10.857      10.854    
  10.853      10.853      10.853      10.857      10.869      10.897      10.950      11.032      11.152      11.312    
  11.517      11.769      12.067      12.408      12.783      13.176      13.567      13.928      14.232      14.453    
  14.570      14.570      14.454      14.233      13.929      13.567      13.175      12.782      12.408      12.067    
  12.622      12.058      11.568      11.151      10.804      10.517      10.285      10.104      9.9684      9.8752    
  9.8207      9.8028      9.8207      9.8753      9.9686      10.104      10.285      10.516      10.803      11.152    
  11.568      12.058      12.623      13.261      13.959      14.696      15.438      16.142      16.760      17.243    
  17.551      17.656      17.550      17.242      16.758      16.141      15.439      14.697      13.960      13.260    
  14.235      13.248      12.387      11.653      11.031      10.516      10.091      9.7473      9.4783      9.2785    
  9.1463      9.0803      9.0804      9.1463      9.2785      9.4780      9.7476      10.091      10.516      11.032    
  11.652      12.387      13.248      14.235      15.335      16.521      17.745      18.940      20.030      20.938    
  21.590      21.930      21.930      21.590      20.940      20.032      18.939      17.743      16.520      15.336    
  16.903      15.319      13.932      12.749      11.764      10.950      10.285      9.7477      9.3209      8.9952    
  8.7644      8.6263      8.5802      8.6263      8.7643      8.9954      9.3211      9.7476      10.285      10.950    
  11.763      12.750      13.931      15.318      16.904      18.657      20.511      22.379      24.143      25.682    
  26.880      27.643      27.904      27.642      26.879      25.680      24.142      22.380      20.514      18.656    
  21.072      18.632      16.482      14.652      13.129      11.892      10.898      10.104      9.4783      8.9953    
  8.6405      8.4061      8.2895      8.2894      8.4063      8.6405      8.9954      9.4780      10.104      10.897    
  11.893      13.130      14.651      16.483      18.633      21.069      23.717      26.453      29.128      31.594    
  33.678      35.198      36.000      36.001      35.199      33.680      31.596      29.128      26.450      23.717    
  27.272      23.686      20.462      17.680      15.375      13.508      12.028      10.869      9.9685      9.2784    
  8.7645      8.4063      8.1940      8.1236      8.1939      8.4063      8.7643      9.2785      9.9686      10.869    
  12.028      13.508      15.374      17.682      20.460      23.686      27.276      31.111      35.083      38.983    
  42.507      45.326      47.150      47.781      47.149      45.325      42.505      38.982      35.085      31.114    
  36.359      31.075      26.382      22.297      18.852      16.059      13.859      12.155      10.857      9.8752    
  9.1464      8.6261      8.2895      8.1234      8.1236      8.2894      8.6263      9.1463      9.8753      10.857    
  12.156      13.858      16.060      18.852      22.295      26.386      31.072      36.359      42.124      48.040    
  53.648      58.437      61.933      63.777      63.777      61.934      58.438      53.650      48.039      42.121    
  50.082      42.074      35.003      29.021      24.028      19.920      16.660      14.153      12.260      10.854    
  9.8208      9.0805      8.5802      8.2895      8.1940      8.2895      8.5802      9.0804      9.8207      10.853    
  12.261      14.152      16.661      19.919      24.029      29.021      35.001      42.077      50.081      58.574    
  66.916      74.383      80.285      84.064      85.364      84.063      80.283      74.382      66.917      58.576    
  70.038      58.526      47.945      38.855      31.453      25.537      20.807      17.131      14.366      12.330    
  10.853      9.8028      9.0805      8.6261      8.4063      8.4061      8.6263      9.0803      9.8028      10.853    
  12.330      14.366      17.132      20.805      25.539      31.451      38.856      47.945      58.524      70.038    
  81.654      92.419      101.41      107.85      111.20      111.20      107.85      101.41      92.419      81.654    
  96.845      81.606      66.819      53.511      42.339      33.506      26.712      21.442      17.431      14.478    
  12.354      10.853      9.8208      9.1464      8.7645      8.6405      8.7644      9.1463      9.8207      10.853    
  12.354      14.478      17.431      21.442      26.713      33.505      42.341      53.510      66.818      81.607    
  96.845      111.33      123.90      133.57      139.64      141.71      139.64      133.57      123.90      111.33    
  129.67      111.29      92.332      74.246      58.264      45.129      35.003      27.460      21.775      17.535    
  14.478      12.330      10.854      9.8752      9.2784      8.9953      8.9952      9.2785      9.8752      10.854    
  12.329      14.479      17.534      21.775      27.460      35.002      45.129      58.263      74.247      92.332    
  111.29      129.67      146.04      159.23      168.41      173.11      173.11      168.41      159.23      146.04    
  166.14      146.01      123.83      101.29      80.120      61.735      46.935      35.793      27.717      21.775    
  17.431      14.366      12.260      10.857      9.9685      9.4783      9.3209      9.4783      9.9684      10.857    
  12.260      14.366      17.431      21.776      27.716      35.793      46.935      61.735      80.120      101.29    
  123.83      146.02      166.14      182.82      195.17      202.70      205.22      202.70      195.17      182.82    
  202.75      182.82      159.19      133.49      107.72      83.884      63.566      47.560      35.793      27.460    
  21.442      17.131      14.153      12.155      10.869      10.104      9.7477      9.7473      10.104      10.869    
  12.156      14.153      17.131      21.443      27.459      35.794      47.559      63.566      83.884      107.72    
  133.49      159.19      182.82      202.75      218.01      228.17      233.22      233.22      228.17      218.01    
  235.79      218.02      195.17      168.38      139.56      111.07      85.180      63.566      46.935      35.003    
  26.712      20.807      16.660      13.859      12.028      10.898      10.285      10.091      10.285      10.897    
  12.028      13.858      16.661      20.807      26.712      35.003      46.934      63.567      85.179      111.07    
  139.56      168.38      195.17      218.02      235.79      248.16      255.33      257.66      255.33      248.16    
  262.30      248.18      228.21      202.71      173.08      141.63      111.07      83.884      61.735      45.129    
  33.506      25.537      19.920      16.059      13.508      11.892      10.950      10.516      10.517      10.949    
  11.893      13.507      16.060      19.919      25.538      33.506      45.128      61.735      83.884      111.07    
  141.63      173.08      202.71      228.21      248.18      262.30      271.02      275.11      275.11      271.02    
  280.88      271.05      255.38      233.27      205.24      173.08      139.56      107.72      80.120      58.264    
  42.339      31.453      24.028      18.852      15.375      13.129      11.764      11.031      10.804      11.031    
  11.764      13.129      15.375      18.850      24.031      31.451      42.340      58.264      80.120      107.72    
  139.56      173.08      205.24      233.27      255.38      271.05      280.88      286.05      287.63      286.05    
  291.93      286.08      275.16      257.72      233.27      202.71      168.38      133.49      101.29      74.246    
  53.511      38.855      29.021      22.297      17.680      14.652      12.749      11.653      11.151      11.152    
  11.652      12.750      14.651      17.681      22.298      29.018      38.857      53.509      74.247      101.29    
  133.49      168.38      202.71      233.27      257.72      275.16      286.08      291.93      294.34      294.33    
  297.23      294.35      287.67      275.16      255.38      228.21      195.17      159.19      123.83      92.332    
  66.819      47.945      35.003      26.382      20.462      16.482      13.932      12.387      11.568      11.312    
  11.568      12.388      13.931      16.483      20.460      26.383      35.004      47.943      66.820      92.331    
  123.83      159.19      195.17      228.21      255.38      275.16      287.67      294.35      297.23      297.97    
  299.12      297.98      294.35      286.08      271.05      248.18      218.02      182.82      146.01      111.29    
  81.606      58.526      42.074      31.075      23.686      18.632      15.319      13.248      12.058      11.517    
  11.517      12.058      13.247      15.319      18.631      23.689      31.071      42.075      58.525      81.606    
  111.29      146.01      182.82      218.02      248.18      271.05      286.08      294.35      297.98      299.12    
  299.32      298.85      296.72      291.07      279.64      260.73      234.00      200.90      164.38      128.15    
  95.643      69.163      49.494      35.983      27.024      20.898      16.779      14.142      12.547      11.702    
  11.438      11.702      12.547      14.141      16.780      20.896      27.024      35.986      49.492      69.164    
  95.643      128.15      164.38      200.90      234.00      260.73      279.64      291.07      296.72      298.85    
  298.85      298.85      297.54      293.61      284.96      269.57      246.44      216.15      181.00      144.40    
  109.98      80.627      57.860      41.654      30.814      23.510      18.509      15.229      13.177      11.997    
  11.460      11.460      11.997      13.176      15.230      18.508      23.513      30.810      41.656      57.859    
  80.628      109.98      144.40      181.00      216.15      246.44      269.57      284.96      293.61      297.54    
  296.72      297.55      296.72      293.61      286.59      273.74      253.67      226.34      193.32      157.50    
  122.43      91.263      66.081      47.479      34.726      26.209      20.343      16.398      13.867      12.333    
  11.518      11.263      11.517      12.333      13.866      16.400      20.341      26.210      34.726      47.477    
  66.082      91.262      122.43      157.50      193.32      226.34      253.67      273.74      286.59      293.61    
  291.07      293.63      293.63      291.07      284.96      273.74      256.03      231.41      200.83      166.64    
  132.01      100.15      73.445      53.003      38.561      28.852      22.187      17.605      14.595      12.702    
  11.609      11.109      11.109      11.608      12.702      14.595      17.606      22.188      28.850      38.564    
  53.001      73.447      100.15      132.01      166.64      200.83      231.41      256.03      273.74      284.96    
  279.64      284.99      286.63      284.99      279.64      269.57      253.67      231.41      203.35      171.32    
  138.04      106.52      79.270      57.720      42.028      31.285      23.927      18.786      15.327      13.089    
  11.726      10.994      10.766      10.994      11.727      13.089      15.328      18.784      23.930      31.283    
  42.029      57.719      79.270      106.52      138.04      171.32      203.35      231.41      253.67      269.57    
  260.73      269.61      273.79      273.79      269.61      260.73      246.44      226.34      200.83      171.32    
  140.09      109.85      83.002      61.164      44.803      33.338      25.445      19.865      16.021      13.476    
  11.860      10.916      10.481      10.482      10.916      11.861      13.475      16.022      19.863      25.446    
  33.338      44.803      61.165      83.002      109.85      140.09      171.32      200.83      226.34      246.44    
  234.00      246.47      253.73      256.10      253.73      246.47      234.00      216.15      193.32      166.64    
  138.04      109.84      84.288      62.981      46.598      34.833      26.629      20.761      16.630      13.833    
  12.001      10.867      10.251      10.057      10.251      10.867      12.001      13.832      16.631      20.761    
  26.629      34.833      46.598      62.982      84.286      109.85      138.04      166.64      193.32      216.15    
  200.90      216.17      226.39      231.47      231.47      226.39      216.17      200.90      181.00      157.50    
  132.01      106.52      83.003      62.981      47.220      35.622      27.383      21.404      17.107      14.134    
  12.132      10.841      10.070      9.7115      9.7113      10.070      10.841      12.133      14.133      17.107    
  21.404      27.382      35.623      47.219      62.983      83.002      106.52      132.01      157.50      181.00    
  164.38      181.00      193.33      200.86      203.39      200.86      193.33      181.00      164.38      144.40    
  122.43      100.15      79.271      61.163      46.599      35.622      27.641      21.739      17.412      14.351    
  12.240      10.830      9.9340      9.4398      9.2803      9.4398      9.9340      10.830      12.240      14.352    
  17.411      21.740      27.640      35.623      46.597      61.165      79.270      100.15      122.43      144.40    
  128.15      144.38      157.48      166.62      171.31      171.31      166.63      157.48      144.38      128.15    
  109.98      91.263      73.446      57.718      44.804      34.832      27.383      21.739      17.517      14.466    
  12.311      10.827      9.8402      9.2368      8.9504      8.9501      9.2373      9.8399      10.827      12.311    
  14.467      17.516      21.740      27.382      34.834      44.802      57.719      73.446      91.262      109.98    
  95.643      109.94      122.37      131.95      137.97      140.03      137.97      131.95      122.37      109.94    
  95.643      80.628      66.081      53.002      42.029      33.336      26.630      21.403      17.412      14.466    
  12.336      10.828      9.7844      9.1028      8.7149      8.5900      8.7148      9.1029      9.7844      10.828    
  12.335      14.466      17.411      21.404      26.629      33.338      42.029      53.001      66.083      80.628    
  69.165      80.585      91.185      100.05      106.41      109.73      109.73      106.41      100.05      91.186    
  80.586      69.164      57.858      47.479      38.562      31.283      25.447      20.759      17.108      14.350    
  12.312      10.827      9.7667      9.0350      8.5745      8.3504      8.3511      8.5739      9.0356      9.7660    
  10.828      12.311      14.352      17.107      20.761      25.446      31.283      38.563      47.477      57.859    
  49.491      57.814      65.994      73.324      79.123      82.842      84.122      82.843      79.124      73.324    
  65.992      57.813      49.493      41.657      34.724      28.853      23.928      19.863      16.631      14.133    
  12.241      10.827      9.7848      9.0353      8.5272      8.2315      8.1341      8.2315      8.5273      9.0355    
  9.7843      10.827      12.240      14.133      16.631      19.863      23.929      28.850      34.726      41.656    
  35.986      41.612      47.391      52.875      57.561      60.984      62.791      62.790      60.984      57.560    
  52.875      47.393      41.614      35.982      30.811      26.212      22.185      18.787      16.022      13.832    
  12.133      10.829      9.8402      9.1024      8.5743      8.2315      8.0623      8.0623      8.2313      8.5742    
  9.1028      9.8403      10.830      12.133      13.832      16.022      18.785      22.188      26.210      30.810    
  27.024      30.774      34.651      38.447      41.877      44.623      46.402      47.018      46.402      44.624    
  41.878      38.446      34.648      30.775      27.027      23.510      20.341      17.607      15.326      13.476    
  12.001      10.840      9.9344      9.2370      8.7152      8.3509      8.1341      8.0624      8.1342      8.3509    
  8.7148      9.2370      9.9339      10.840      12.001      13.475      15.328      17.606      20.341      23.513    
  20.896      23.485      26.149      28.752      31.153      33.179      34.655      35.434      35.433      34.654    
  33.178      31.153      28.755      26.151      23.482      20.895      18.510      16.399      14.594      13.090    
  11.861      10.867      10.071      9.4392      8.9504      8.5895      8.3508      8.2314      8.2314      8.3507    
  8.5900      8.9504      9.4398      10.071      10.867      11.861      13.089      14.594      16.400      18.508    
  16.780      18.487      20.295      22.112      23.826      25.318      26.478      27.217      27.471      27.218    
  26.479      25.318      23.825      22.110      20.295      18.489      16.780      15.228      13.867      12.702    
  11.725      10.916      10.251      9.7114      9.2807      8.9504      8.7152      8.5743      8.5273      8.5743    
  8.7149      8.9501      9.2803      9.7110      10.251      10.916      11.726      12.703      13.866      15.229    
  14.141      15.214      16.366      17.551      18.707      19.763      20.642      21.271      21.600      21.600    
  21.271      20.641      19.764      18.709      17.552      16.366      15.214      14.141      13.177      12.333    
  11.608      10.995      10.481      10.057      9.7114      9.4392      9.2370      9.1024      9.0351      9.0353    
  9.1028      9.2371      9.4398      9.7117      10.057      10.482      10.994      11.608      12.333      13.176    
  12.547      13.166      13.843      14.556      15.273      15.951      16.545      17.010      17.307      17.409    
  17.308      17.011      16.545      15.950      15.271      14.556      13.843      13.167      12.547      11.997    
  11.518      11.109      10.765      10.481      10.251      10.071      9.9345      9.8403      9.7850      9.7665    
  9.7844      9.8399      9.9339      10.070      10.251      10.481      10.766      11.109      11.518      11.997    
  11.702      11.989      12.317      12.676      13.052      13.426      13.774      14.066      14.278      14.389    
  14.388      14.277      14.065      13.774      13.427      13.053      12.676      12.316      11.989      11.702    
  11.460      11.263      11.109      10.995      10.916      10.867      10.840      10.829      10.827      10.827    
  10.828      10.827      10.830      10.841      10.867      10.916      10.994      11.108      11.263      11.460    
  11.438      11.454      11.505      11.589      11.701      11.829      11.964      12.091      12.194      12.263    
  12.287      12.263      12.195      12.090      11.964      11.829      11.700      11.589      11.505      11.454    
  11.438      11.460      11.518      11.608      11.725      11.861      12.001      12.133      12.241      12.311    
  12.336      12.311      12.240      12.132      12.001      11.860      11.726      11.609      11.518      11.460    
  11.703      11.454      11.252      11.094      10.975      10.894      10.844      10.816      10.805      10.802    