Pt-hcc                                  
   1.00000000000000     
     2.835561    0.000000    0.000000
    -1.417781    2.455668    0.000000
     0.000000    0.000000    4.912544
   Pt
     2
Direct
  0.000000  0.000000  0.000000
  0.333333  0.666667  0.500000
 
   40   40   72
 0.29950076066E+03 0.29911525972E+03 0.29722771229E+03 0.29192854371E+03 0.28088129781E+03
 0.26230041332E+03 0.23579253062E+03 0.20275319332E+03 0.16613542189E+03 0.12966924911E+03
 0.96845112652E+02 0.70037665608E+02 0.50081731522E+02 0.36359330317E+02 0.27272169333E+02
 0.21072147542E+02 0.16902715504E+02 0.14235478395E+02 0.12622221159E+02 0.11769275031E+02
 0.11502118870E+02 0.11769049926E+02 0.12622700275E+02 0.14234691733E+02 0.16903907058E+02
 0.21070425609E+02 0.27271828252E+02 0.36362113947E+02 0.50079579138E+02 0.70038714149E+02
 0.96844554286E+02 0.12966986763E+03 0.16613492257E+03 0.20275387420E+03 0.23579204864E+03
 0.26230093765E+03 0.28088106764E+03 0.29192842463E+03 0.29722766073E+03 0.29911541320E+03
 0.29911541320E+03 0.29911509222E+03 0.29797032382E+03 0.29433469646E+03 0.28604945738E+03
 0.27101925868E+03 0.24815811246E+03 0.21800680157E+03 0.18282350886E+03 0.14603718996E+03
 0.11133294691E+03 0.81653674635E+02 0.58575894492E+02 0.42121035868E+02 0.31114014191E+02
 0.23716769220E+02 0.18655548801E+02 0.15335915720E+02 0.13260188488E+02 0.12067405358E+02
 0.11525284542E+02 0.11525037152E+02 0.12067669314E+02 0.13259788613E+02 0.15336511318E+02
 0.18654404984E+02 0.23719998968E+02 0.31110422125E+02 0.42122460667E+02 0.58575539331E+02
 0.81653850118E+02 0.11133260483E+03 0.14603734741E+03 0.18282320223E+03 0.21800715210E+03
 0.24815768137E+03 0.27101989255E+03 0.28604912839E+03 0.29433499803E+03 0.29797039294E+03
 0.29722766073E+03 0.29797695731E+03 0.29722779487E+03 0.29433515384E+03 0.28762810162E+03
 0.27510610308E+03 0.25532809648E+03 0.22817416204E+03 0.19516890937E+03 0.15922638476E+03
 0.12389791334E+03 0.92419489375E+02 0.66916578323E+02 0.48038956714E+02 0.35085229731E+02
 0.26449516531E+02 0.20513614403E+02 0.16520323738E+02 0.13959517497E+02 0.12408000883E+02
 0.11584628538E+02 0.11327262211E+02 0.11584370620E+02 0.12408470268E+02 0.13958648997E+02
 0.16521598130E+02 0.20511428194E+02 0.26450585758E+02 0.35086356319E+02 0.48037542480E+02
 0.66917952464E+02 0.92418268771E+02 0.12389891200E+03 0.15922575498E+03 0.19516925398E+03
 0.22817418765E+03 0.25532834041E+03 0.27510610644E+03 0.28762910567E+03 0.29433499803E+03
 0.29192842463E+03 0.29435235218E+03 0.29435199041E+03 0.29192819115E+03 0.28604888051E+03
 0.27510651341E+03 0.25766345135E+03 0.23322168883E+03 0.20269624629E+03 0.16841219130E+03
 0.13356709444E+03 0.10140718749E+03 0.74381884480E+02 0.53649516280E+02 0.38982301261E+02
 0.29128059679E+02 0.22380493327E+02 0.17742894105E+02 0.14697061945E+02 0.12782077822E+02
 0.11677564760E+02 0.11172402090E+02 0.11172942653E+02 0.11676971869E+02 0.12782600880E+02
 0.14696530935E+02 0.17743406343E+02 0.22381529680E+02 0.29125739690E+02 0.38984509384E+02
 0.53647617059E+02 0.74383174323E+02 0.10140628073E+03 0.13356738168E+03 0.16841198824E+03
 0.20269629123E+03 0.23322180393E+03 0.25766378372E+03 0.27510610644E+03 0.28604912839E+03
 0.28088106764E+03 0.28607603308E+03 0.28766555604E+03 0.28607587234E+03 0.28088084795E+03
 0.27101981109E+03 0.25532777599E+03 0.23322160584E+03 0.20521945374E+03 0.17311121226E+03
 0.13963977454E+03 0.10784722385E+03 0.80283476007E+02 0.58438178428E+02 0.42505192833E+02
 0.31595787319E+02 0.24142229377E+02 0.18939345560E+02 0.15438611484E+02 0.13175282198E+02
 0.11797287596E+02 0.11057727058E+02 0.10827705222E+02 0.11057594092E+02 0.11797504069E+02
 0.13174784481E+02 0.15439273214E+02 0.18937548853E+02 0.24144652397E+02 0.31593956772E+02
 0.42506536164E+02 0.58437610050E+02 0.80283650104E+02 0.10784721785E+03 0.13963954829E+03
 0.17311158740E+03 0.20521904205E+03 0.23322180393E+03 0.25532834041E+03 0.27101989255E+03
 0.26230093765E+03 0.27104977886E+03 0.27515668051E+03 0.27515663606E+03 0.27105063543E+03
 0.26230054154E+03 0.24815787654E+03 0.22817437820E+03 0.20269675359E+03 0.17311084165E+03
 0.14170885534E+03 0.11120338218E+03 0.84063383146E+02 0.61933787435E+02 0.45324818256E+02
 0.33680182125E+02 0.25679529983E+02 0.20032321709E+02 0.16141036703E+02 0.13567070347E+02
 0.11933361564E+02 0.10980199077E+02 0.10540604413E+02 0.10541496458E+02 0.10979234114E+02
 0.11934417327E+02 0.13565903720E+02 0.16142872805E+02 0.20030423928E+02 0.25680808205E+02
 0.33679660466E+02 0.45324789955E+02 0.61934029812E+02 0.84062877931E+02 0.11120404674E+03
 0.14170779860E+03 0.17311158740E+03 0.20269629123E+03 0.22817418765E+03 0.24815768137E+03
 0.23579204864E+03 0.24818407438E+03 0.25537868536E+03 0.25772363173E+03 0.25537807572E+03
 0.24818356286E+03 0.23579247875E+03 0.21800734674E+03 0.19516913397E+03 0.16841164902E+03
 0.13964041856E+03 0.11120288291E+03 0.85364486663E+02 0.63777240726E+02 0.47149266001E+02
 0.35198623126E+02 0.26878796931E+02 0.20939701106E+02 0.16758345381E+02 0.13928851400E+02
 0.12076024367E+02 0.10931139780E+02 0.10309247817E+02 0.10113323082E+02 0.10309376057E+02
 0.10930852986E+02 0.12076371032E+02 0.13928036645E+02 0.16759104003E+02 0.20939546778E+02
 0.26878404924E+02 0.35199306563E+02 0.47148512150E+02 0.63778174194E+02 0.85363349468E+02
 0.11120404674E+03 0.13963954829E+03 0.16841198824E+03 0.19516925398E+03 0.21800715210E+03
 0.20275387420E+03 0.21802030812E+03 0.22820758470E+03 0.23326902270E+03 0.23326973744E+03
 0.22820807472E+03 0.21802134773E+03 0.20275340287E+03 0.18282331299E+03 0.15922611998E+03
 0.13356809778E+03 0.10784630750E+03 0.84064152282E+02 0.63776884268E+02 0.47781120661E+02
 0.36000690148E+02 0.27642148035E+02 0.21590415106E+02 0.17241682204E+02 0.14233325893E+02
 0.12209541272E+02 0.10905050748E+02 0.10127147097E+02 0.97655618931E+01 0.97651136335E+01
 0.10127636305E+02 0.10904640855E+02 0.12210222452E+02 0.14232802899E+02 0.17241639141E+02
 0.21590906337E+02 0.27641495015E+02 0.36001570613E+02 0.47780096112E+02 0.63778174194E+02
 0.84062877931E+02 0.10784721785E+03 0.13356738168E+03 0.15922575498E+03 0.18282320223E+03
 0.16613492257E+03 0.18281875733E+03 0.19517362438E+03 0.20271180521E+03 0.20523988543E+03
 0.20271158062E+03 0.19517307531E+03 0.18281833552E+03 0.16613560986E+03 0.14603782285E+03
 0.12389821779E+03 0.10140583826E+03 0.80284514037E+02 0.61932716055E+02 0.47149770899E+02
 0.36000445547E+02 0.27904455301E+02 0.21930330497E+02 0.17550084249E+02 0.14453985136E+02
 0.12318746885E+02 0.10894568675E+02 0.99901217806E+01 0.94918379313E+01 0.93309773743E+01
 0.94918197416E+01 0.99901268502E+01 0.10894403980E+02 0.12318800114E+02 0.14454361414E+02
 0.17549284720E+02 0.21931123357E+02 0.27903347651E+02 0.36001570613E+02 0.47148512150E+02
 0.61934029812E+02 0.80283650104E+02 0.10140628073E+03 0.12389891200E+03 0.14603734741E+03
 0.12966986763E+03 0.14601438312E+03 0.15919430415E+03 0.16838165216E+03 0.17308434321E+03
 0.17308422153E+03 0.16838200765E+03 0.15919499082E+03 0.14601512062E+03 0.12966926674E+03
 0.11133222925E+03 0.92419272701E+02 0.74383293562E+02 0.58436564144E+02 0.45326179492E+02
 0.35197842085E+02 0.27642622654E+02 0.21930008044E+02 0.17656440652E+02 0.14569638136E+02
 0.12390864885E+02 0.10891922005E+02 0.98955490918E+01 0.92874889684E+01 0.89985509267E+01
 0.89985041694E+01 0.92876350280E+01 0.98955899888E+01 0.10892036063E+02 0.12390366192E+02
 0.14570434580E+02 0.17655564528E+02 0.21931123357E+02 0.27641495015E+02 0.35199306563E+02
 0.45324789955E+02 0.58437610050E+02 0.74383174323E+02 0.92418268771E+02 0.11133260483E+03
 0.96844554286E+02 0.11129355446E+03 0.12383491207E+03 0.13349017272E+03 0.13955819020E+03
 0.14162535535E+03 0.13955836597E+03 0.13349021088E+03 0.12383404413E+03 0.11129292660E+03
 0.96844952457E+02 0.81654469528E+02 0.66916283995E+02 0.53648055498E+02 0.42506953847E+02
 0.33678304185E+02 0.26879940172E+02 0.21589762038E+02 0.17550531256E+02 0.14569631801E+02
 0.12415801791E+02 0.10892526202E+02 0.98394861408E+01 0.91523036178E+01 0.87613885994E+01
 0.86356719081E+01 0.87613069328E+01 0.91523407165E+01 0.98393720168E+01 0.10893031803E+02
 0.12414955626E+02 0.14570434580E+02 0.17549284720E+02 0.21590906337E+02 0.26878404924E+02
 0.33679660466E+02 0.42506536164E+02 0.53647617059E+02 0.66917952464E+02 0.81653850118E+02
 0.70038714149E+02 0.81606425562E+02 0.92331230287E+02 0.10129184807E+03 0.10771620919E+03
 0.11106580595E+03 0.11106542332E+03 0.10771587479E+03 0.10129159607E+03 0.92332377369E+02
 0.81607105227E+02 0.70038119126E+02 0.58574329864E+02 0.48039525263E+02 0.38983283824E+02
 0.31594091147E+02 0.25681685249E+02 0.20938164062E+02 0.17242794261E+02 0.14453075024E+02
 0.12391308243E+02 0.10892025233E+02 0.98215873403E+01 0.90840913419E+01 0.86198826724E+01
 0.83944622761E+01 0.83949269033E+01 0.86195404265E+01 0.90845264175E+01 0.98208830125E+01
 0.10893031803E+02 0.12390366192E+02 0.14454361414E+02 0.17241639141E+02 0.20939546778E+02
 0.25680808205E+02 0.31593956772E+02 0.38984509384E+02 0.48037542480E+02 0.58575539331E+02
 0.50079579138E+02 0.58525352565E+02 0.66820190697E+02 0.74247102602E+02 0.80119882122E+02
 0.83883612855E+02 0.85178976963E+02 0.83884203717E+02 0.80120365804E+02 0.74247013489E+02
 0.66818440640E+02 0.58524108983E+02 0.50080752667E+02 0.42123771316E+02 0.35083315971E+02
 0.29128015111E+02 0.24143399282E+02 0.20030441707E+02 0.16759855182E+02 0.14232221916E+02
 0.12319696457E+02 0.10891512054E+02 0.98400028492E+01 0.90841568184E+01 0.85723665040E+01
 0.82745300228E+01 0.81765542117E+01 0.82745326377E+01 0.85723131315E+01 0.90845264175E+01
 0.98393720168E+01 0.10892036063E+02 0.12318800114E+02 0.14232802899E+02 0.16759104003E+02
 0.20030423928E+02 0.24144652397E+02 0.29125739690E+02 0.35086356319E+02 0.42122460667E+02
 0.36362113947E+02 0.42075356033E+02 0.47943243998E+02 0.53509034064E+02 0.58263732339E+02
 0.61735267194E+02 0.63567084451E+02 0.63566416435E+02 0.61734571456E+02 0.58262752714E+02
 0.53509715722E+02 0.47945181301E+02 0.42076802884E+02 0.36358643861E+02 0.31111078314E+02
 0.26452913776E+02 0.22378938852E+02 0.18939627535E+02 0.16142081093E+02 0.13927922575E+02
 0.12210290592E+02 0.10893823388E+02 0.98958202648E+01 0.91518472481E+01 0.86198019472E+01
 0.82744733569E+01 0.81043008435E+01 0.81041932070E+01 0.82745326377E+01 0.86195404265E+01
 0.91523407165E+01 0.98955899888E+01 0.10894403980E+02 0.12210222452E+02 0.13928036645E+02
 0.16142872805E+02 0.18937548853E+02 0.22381529680E+02 0.26450585758E+02 0.31110422125E+02
 0.27271828252E+02 0.31071048310E+02 0.35003846847E+02 0.38857073679E+02 0.42340347439E+02
 0.45128316631E+02 0.46933899397E+02 0.47559081519E+02 0.46934600725E+02 0.45129438739E+02
 0.42340740798E+02 0.38855766015E+02 0.35000857834E+02 0.31071611363E+02 0.27275540324E+02
 0.23717270271E+02 0.20511414788E+02 0.17744708887E+02 0.15437756825E+02 0.13566611924E+02
 0.12076465463E+02 0.10904677135E+02 0.99906188194E+01 0.92875211487E+01 0.87617019090E+01
 0.83947858584E+01 0.81764589301E+01 0.81043008435E+01 0.81765542117E+01 0.83949269033E+01
 0.87613069328E+01 0.92876350280E+01 0.99901268502E+01 0.10904640855E+02 0.12076371032E+02
 0.13565903720E+02 0.15439273214E+02 0.17743406343E+02 0.20511428194E+02 0.23719998968E+02
 0.21070425609E+02 0.23688945454E+02 0.26383209347E+02 0.29018249980E+02 0.31450808105E+02
 0.33506101832E+02 0.35003411580E+02 0.35793770449E+02 0.35793450111E+02 0.35002365305E+02
 0.33504838937E+02 0.31451107030E+02 0.29020613835E+02 0.26385626426E+02 0.23686273686E+02
 0.21069317967E+02 0.18656551975E+02 0.16521176753E+02 0.14696103778E+02 0.13175915679E+02
 0.11933922290E+02 0.10930617488E+02 0.10127604371E+02 0.94912186048E+01 0.89986645706E+01
 0.86351627881E+01 0.83947858584E+01 0.82744733569E+01 0.82745300228E+01 0.83944622761E+01
 0.86356719081E+01 0.89985041694E+01 0.94918197416E+01 0.10127636305E+02 0.10930852986E+02
 0.11934417327E+02 0.13174784481E+02 0.14696530935E+02 0.16521598130E+02 0.18654404984E+02
 0.16903907058E+02 0.18630919750E+02 0.20459694964E+02 0.22297555359E+02 0.24030500012E+02
 0.25538175367E+02 0.26711661573E+02 0.27459260609E+02 0.27716198375E+02 0.27459889504E+02
 0.26712974517E+02 0.25539062011E+02 0.24029133943E+02 0.22294979640E+02 0.20459621139E+02
 0.18633078295E+02 0.16904147813E+02 0.15335472285E+02 0.13958970645E+02 0.12782911760E+02
 0.11796432595E+02 0.10979797573E+02 0.10309496652E+02 0.97653603488E+01 0.93314459573E+01
 0.89986645706E+01 0.87617019090E+01 0.86198019472E+01 0.85723665040E+01 0.86198826724E+01
 0.87613885994E+01 0.89985509267E+01 0.93309773743E+01 0.97651136335E+01 0.10309376057E+02
 0.10979234114E+02 0.11797504069E+02 0.12782600880E+02 0.13958648997E+02 0.15336511318E+02
 0.14234691733E+02 0.15319417197E+02 0.16483285206E+02 0.17680841573E+02 0.18850191104E+02
 0.19918539693E+02 0.20806611293E+02 0.21443096842E+02 0.21775644427E+02 0.21775225046E+02
 0.21442257125E+02 0.20805358669E+02 0.19918617472E+02 0.18852393034E+02 0.17682153941E+02
 0.16482883150E+02 0.15318341532E+02 0.14234531433E+02 0.13260620829E+02 0.12408150189E+02
 0.11677021584E+02 0.11058418412E+02 0.10541073383E+02 0.10113018666E+02 0.97653603488E+01
 0.94912186048E+01 0.92875211487E+01 0.91518472481E+01 0.90841568184E+01 0.90840913419E+01
 0.91523036178E+01 0.92874889684E+01 0.94918379313E+01 0.97655618931E+01 0.10113323082E+02
 0.10541496458E+02 0.11057594092E+02 0.11676971869E+02 0.12408470268E+02 0.13259788613E+02
 0.12622700275E+02 0.13247229391E+02 0.13930799129E+02 0.14651125631E+02 0.15375476479E+02
 0.16060427715E+02 0.16660709981E+02 0.17130875561E+02 0.17430673638E+02 0.17534105768E+02
 0.17431351061E+02 0.17131786485E+02 0.16661379307E+02 0.16059573021E+02 0.15373864252E+02
 0.14650673662E+02 0.13931076353E+02 0.13248055426E+02 0.12622775283E+02 0.12067245025E+02
 0.11584462127E+02 0.11172766745E+02 0.10826803720E+02 0.10541073383E+02 0.10309496652E+02
 0.10127604371E+02 0.99906188194E+01 0.98958202648E+01 0.98400028492E+01 0.98215873403E+01
 0.98394861408E+01 0.98955490918E+01 0.99901217806E+01 0.10127147097E+02 0.10309247817E+02
 0.10540604413E+02 0.10827705222E+02 0.11172942653E+02 0.11584370620E+02 0.12067669314E+02
 0.11769049926E+02 0.12058040792E+02 0.12387778191E+02 0.12749737712E+02 0.13129017185E+02
 0.13507287645E+02 0.13857891098E+02 0.14152610211E+02 0.14366450697E+02 0.14478546553E+02
 0.14478286471E+02 0.14365632194E+02 0.14152108271E+02 0.13857867456E+02 0.13508021580E+02
 0.13130179010E+02 0.12749993456E+02 0.12387440370E+02 0.12057587878E+02 0.11768755804E+02
 0.11525251155E+02 0.11327098300E+02 0.11172766745E+02 0.11058418412E+02 0.10979797573E+02
 0.10930617488E+02 0.10904677135E+02 0.10893823388E+02 0.10891512054E+02 0.10892025233E+02
 0.10892526202E+02 0.10891922005E+02 0.10894568675E+02 0.10905050748E+02 0.10931139780E+02
 0.10980199077E+02 0.11057727058E+02 0.11172402090E+02 0.11327262211E+02 0.11525037152E+02
 0.11502118870E+02 0.11516769034E+02 0.11567814633E+02 0.11651998458E+02 0.11764292514E+02
 0.11893203186E+02 0.12028149677E+02 0.12155709467E+02 0.12260190764E+02 0.12329321079E+02
 0.12353562060E+02 0.12329745216E+02 0.12260761733E+02 0.12155723552E+02 0.12028138969E+02
 0.11892673686E+02 0.11763138598E+02 0.11652032487E+02 0.11567866992E+02 0.11516990414E+02
 0.11502303105E+02 0.11525251155E+02 0.11584462127E+02 0.11677021584E+02 0.11796432595E+02
 0.11933922290E+02 0.12076465463E+02 0.12210290592E+02 0.12319696457E+02 0.12391308243E+02
 0.12415801791E+02 0.12390864885E+02 0.12318746885E+02 0.12209541272E+02 0.12076024367E+02
 0.11933361564E+02 0.11797287596E+02 0.11677564760E+02 0.11584628538E+02 0.11525284542E+02
 0.11769275031E+02 0.11517030932E+02 0.11311973114E+02 0.11151791040E+02 0.11031421294E+02
 0.10949071866E+02 0.10897431394E+02 0.10868867852E+02 0.10856972669E+02 0.10853600720E+02
 0.10853493935E+02 0.10853321978E+02 0.10853350794E+02 0.10856708141E+02 0.10868949357E+02
 0.10897291642E+02 0.10949614370E+02 0.11032283236E+02 0.11151586335E+02 0.11311834139E+02
 0.11516990414E+02 0.11768755804E+02 0.12067245025E+02 0.12408150189E+02 0.12782911760E+02
 0.13175915679E+02 0.13566611924E+02 0.13927922575E+02 0.14232221916E+02 0.14453075024E+02
 0.14569631801E+02 0.14569638136E+02 0.14453985136E+02 0.14233325893E+02 0.13928851400E+02
 0.13567070347E+02 0.13175282198E+02 0.12782077822E+02 0.12408000883E+02 0.12067405358E+02
 0.12622221159E+02 0.12057709850E+02 0.11568034788E+02 0.11151180455E+02 0.10803945116E+02
 0.10516601185E+02 0.10284768697E+02 0.10103973839E+02 0.99683964947E+01 0.98751978898E+01
 0.98206614116E+01 0.98028206468E+01 0.98207335855E+01 0.98752799091E+01 0.99686113341E+01
 0.10103957779E+02 0.10284795804E+02 0.10516194553E+02 0.10802985017E+02 0.11151586335E+02
 0.11567866992E+02 0.12057587878E+02 0.12622775283E+02 0.13260620829E+02 0.13958970645E+02
 0.14696103778E+02 0.15437756825E+02 0.16142081093E+02 0.16759855182E+02 0.17242794261E+02
 0.17550531256E+02 0.17656440652E+02 0.17550084249E+02 0.17241682204E+02 0.16758345381E+02
 0.16141036703E+02 0.15438611484E+02 0.14697061945E+02 0.13959517497E+02 0.13260188488E+02
 0.14235478395E+02 0.13247629431E+02 0.12387226004E+02 0.11652571308E+02 0.11031497105E+02
 0.10515747392E+02 0.10091323982E+02 0.97473461246E+01 0.94782662441E+01 0.92784822159E+01
 0.91462662423E+01 0.90803386036E+01 0.90804166140E+01 0.91463082627E+01 0.92785140656E+01
 0.94779779075E+01 0.97475616074E+01 0.10091126819E+02 0.10516194553E+02 0.11032283236E+02
 0.11652032487E+02 0.12387440370E+02 0.13248055426E+02 0.14234531433E+02 0.15335472285E+02
 0.16521176753E+02 0.17744708887E+02 0.18939627535E+02 0.20030441707E+02 0.20938164062E+02
 0.21589762038E+02 0.21930008044E+02 0.21930330497E+02 0.21590415106E+02 0.20939701106E+02
 0.20032321709E+02 0.18939345560E+02 0.17742894105E+02 0.16520323738E+02 0.15335915720E+02
 0.16902715504E+02 0.15318732914E+02 0.13931636908E+02 0.12749077520E+02 0.11764046731E+02
 0.10949947912E+02 0.10284663173E+02 0.97476916457E+01 0.93208906620E+01 0.89952425882E+01
 0.87644275044E+01 0.86263311657E+01 0.85802217022E+01 0.86262680232E+01 0.87643377663E+01
 0.89953579707E+01 0.93210649483E+01 0.97475616074E+01 0.10284795804E+02 0.10949614370E+02
 0.11763138598E+02 0.12749993456E+02 0.13931076353E+02 0.15318341532E+02 0.16904147813E+02
 0.18656551975E+02 0.20511414788E+02 0.22378938852E+02 0.24143399282E+02 0.25681685249E+02
 0.26879940172E+02 0.27642622654E+02 0.27904455301E+02 0.27642148035E+02 0.26878796931E+02
 0.25679529983E+02 0.24142229377E+02 0.22380493327E+02 0.20513614403E+02 0.18655548801E+02
 0.21072147542E+02 0.18632163947E+02 0.16481949602E+02 0.14651683002E+02 0.13129406203E+02
 0.11892172708E+02 0.10897671665E+02 0.10103622655E+02 0.94783023284E+01 0.89952626473E+01
 0.86404786300E+01 0.84061206376E+01 0.82894580703E+01 0.82893929613E+01 0.84063077237E+01
 0.86404502948E+01 0.89953579707E+01 0.94779779075E+01 0.10103957779E+02 0.10897291642E+02
 0.11892673686E+02 0.13130179010E+02 0.14650673662E+02 0.16482883150E+02 0.18633078295E+02
 0.21069317967E+02 0.23717270271E+02 0.26452913776E+02 0.29128015111E+02 0.31594091147E+02
 0.33678304185E+02 0.35197842085E+02 0.36000445547E+02 0.36000690148E+02 0.35198623126E+02
 0.33680182125E+02 0.31595787319E+02 0.29128059679E+02 0.26449516531E+02 0.23716769220E+02
 0.27272169333E+02 0.23685637267E+02 0.20461909795E+02 0.17680256856E+02 0.15374850245E+02
 0.13508376463E+02 0.12027855979E+02 0.10869190451E+02 0.99684596621E+01 0.92784337410E+01
 0.87644857809E+01 0.84062845489E+01 0.81939709445E+01 0.81235722271E+01 0.81939175021E+01
 0.84063077237E+01 0.87643377663E+01 0.92785140656E+01 0.99686113341E+01 0.10868949357E+02
 0.12028138969E+02 0.13508021580E+02 0.15373864252E+02 0.17682153941E+02 0.20459621139E+02
 0.23686273686E+02 0.27275540324E+02 0.31111078314E+02 0.35083315971E+02 0.38983283824E+02
 0.42506953847E+02 0.45326179492E+02 0.47149770899E+02 0.47781120661E+02 0.47149266001E+02
 0.45324818256E+02 0.42505192833E+02 0.38982301261E+02 0.35085229731E+02 0.31114014191E+02
 0.36359330317E+02 0.31074733365E+02 0.26382233954E+02 0.22296681192E+02 0.18851967872E+02
 0.16058641295E+02 0.13858628266E+02 0.12155165396E+02 0.10857129560E+02 0.98751612308E+01
 0.91463570443E+01 0.86261022632E+01 0.82895436029E+01 0.81233619918E+01 0.81235722271E+01
 0.82893929613E+01 0.86262680232E+01 0.91463082627E+01 0.98752799091E+01 0.10856708141E+02
 0.12155723552E+02 0.13857867456E+02 0.16059573021E+02 0.18852393034E+02 0.22294979640E+02
 0.26385626426E+02 0.31071611363E+02 0.36358643861E+02 0.42123771316E+02 0.48039525263E+02
 0.53648055498E+02 0.58436564144E+02 0.61932716055E+02 0.63776884268E+02 0.63777240726E+02
 0.61933787435E+02 0.58438178428E+02 0.53649516280E+02 0.48038956714E+02 0.42121035868E+02
 0.50081731522E+02 0.42073962477E+02 0.35002784059E+02 0.29020519417E+02 0.24028155386E+02
 0.19920419877E+02 0.16660081552E+02 0.14152945920E+02 0.12260248841E+02 0.10853507800E+02
 0.98207513664E+01 0.90804885671E+01 0.85801950238E+01 0.82895436029E+01 0.81939709445E+01
 0.82894580703E+01 0.85802217022E+01 0.90804166140E+01 0.98207335855E+01 0.10853350794E+02
 0.12260761733E+02 0.14152108271E+02 0.16661379307E+02 0.19918617472E+02 0.24029133943E+02
 0.29020613835E+02 0.35000857834E+02 0.42076802884E+02 0.50080752667E+02 0.58574329864E+02
 0.66916283995E+02 0.74383293562E+02 0.80284514037E+02 0.84064152282E+02 0.85364486663E+02
 0.84063383146E+02 0.80283476007E+02 0.74381884480E+02 0.66916578323E+02 0.58575894492E+02
 0.70037665608E+02 0.58525765542E+02 0.47944564264E+02 0.38855073331E+02 0.31452726643E+02
 0.25537082755E+02 0.20806582638E+02 0.17131065159E+02 0.14365984145E+02 0.12329698317E+02
 0.10853258601E+02 0.98027838921E+01 0.90804885671E+01 0.86261022632E+01 0.84062845489E+01
 0.84061206376E+01 0.86263311657E+01 0.90803386036E+01 0.98028206468E+01 0.10853321978E+02
 0.12329745216E+02 0.14365632194E+02 0.17131786485E+02 0.20805358669E+02 0.25539062011E+02
 0.31451107030E+02 0.38855766015E+02 0.47945181301E+02 0.58524108983E+02 0.70038119126E+02
 0.81654469528E+02 0.92419272701E+02 0.10140583826E+03 0.10784630750E+03 0.11120288291E+03
 0.11120338218E+03 0.10784722385E+03 0.10140718749E+03 0.92419489375E+02 0.81653674635E+02
 0.96845112652E+02 0.81606048074E+02 0.66818935917E+02 0.53510898790E+02 0.42339109301E+02
 0.33506447941E+02 0.26712254193E+02 0.21442457584E+02 0.17431391681E+02 0.14477910052E+02
 0.12353955654E+02 0.10853258601E+02 0.98207513664E+01 0.91463570443E+01 0.87644857809E+01
 0.86404786300E+01 0.87644275044E+01 0.91462662423E+01 0.98206614116E+01 0.10853493935E+02
 0.12353562060E+02 0.14478286471E+02 0.17431351061E+02 0.21442257125E+02 0.26712974517E+02
 0.33504838937E+02 0.42340740798E+02 0.53509715722E+02 0.66818440640E+02 0.81607105227E+02
 0.96844952457E+02 0.11133222925E+03 0.12389821779E+03 0.13356809778E+03 0.13964041856E+03
 0.14170885534E+03 0.13963977454E+03 0.13356709444E+03 0.12389791334E+03 0.11133294691E+03
 0.12966924911E+03 0.11129395007E+03 0.92332371488E+02 0.74245792575E+02 0.58264094600E+02
 0.45128628455E+02 0.35002616792E+02 0.27460026158E+02 0.21774788223E+02 0.17534681694E+02
 0.14477910052E+02 0.12329698317E+02 0.10853507800E+02 0.98751612308E+01 0.92784337410E+01
 0.89952626473E+01 0.89952425882E+01 0.92784822159E+01 0.98751978898E+01 0.10853600720E+02
 0.12329321079E+02 0.14478546553E+02 0.17534105768E+02 0.21775225046E+02 0.27459889504E+02
 0.35002365305E+02 0.45129438739E+02 0.58262752714E+02 0.74247013489E+02 0.92332377369E+02
 0.11129292660E+03 0.12966926674E+03 0.14603782285E+03 0.15922611998E+03 0.16841164902E+03
 0.17311084165E+03 0.17311121226E+03 0.16841219130E+03 0.15922638476E+03 0.14603718996E+03
 0.16613542189E+03 0.14601408521E+03 0.12383384847E+03 0.10129247755E+03 0.80119798310E+02
 0.61735061673E+02 0.46934599257E+02 0.35793018495E+02 0.27716867144E+02 0.21774788223E+02
 0.17431391681E+02 0.14365984145E+02 0.12260248841E+02 0.10857129560E+02 0.99684596621E+01
 0.94783023284E+01 0.93208906620E+01 0.94782662441E+01 0.99683964947E+01 0.10856972669E+02
 0.12260190764E+02 0.14366450697E+02 0.17430673638E+02 0.21775644427E+02 0.27716198375E+02
 0.35793450111E+02 0.46934600725E+02 0.61734571456E+02 0.80120365804E+02 0.10129159607E+03
 0.12383404413E+03 0.14601512062E+03 0.16613560986E+03 0.18282331299E+03 0.19516913397E+03
 0.20269675359E+03 0.20521945374E+03 0.20269624629E+03 0.19516890937E+03 0.18282350886E+03
 0.20275319332E+03 0.18281908399E+03 0.15919490641E+03 0.13348972905E+03 0.10771629238E+03
 0.83883821983E+02 0.63566251964E+02 0.47559833966E+02 0.35793018495E+02 0.27460026158E+02
 0.21442457584E+02 0.17131065159E+02 0.14152945920E+02 0.12155165396E+02 0.10869190451E+02
 0.10103622655E+02 0.97476916457E+01 0.97473461246E+01 0.10103973839E+02 0.10868867852E+02
 0.12155709467E+02 0.14152610211E+02 0.17130875561E+02 0.21443096842E+02 0.27459260609E+02
 0.35793770449E+02 0.47559081519E+02 0.63566416435E+02 0.83884203717E+02 0.10771587479E+03
 0.13349021088E+03 0.15919499082E+03 0.18281833552E+03 0.20275340287E+03 0.21800734674E+03
 0.22817437820E+03 0.23322160584E+03 0.23322168883E+03 0.22817416204E+03 0.21800680157E+03
 0.23579253062E+03 0.21802040060E+03 0.19517290844E+03 0.16838221054E+03 0.13955785424E+03
 0.11106546049E+03 0.85179583033E+02 0.63566251964E+02 0.46934599257E+02 0.35002616792E+02
 0.26712254193E+02 0.20806582638E+02 0.16660081552E+02 0.13858628266E+02 0.12027855979E+02
 0.10897671665E+02 0.10284663173E+02 0.10091323982E+02 0.10284768697E+02 0.10897431394E+02
 0.12028149677E+02 0.13857891098E+02 0.16660709981E+02 0.20806611293E+02 0.26711661573E+02
 0.35003411580E+02 0.46933899397E+02 0.63567084451E+02 0.85178976963E+02 0.11106542332E+03
 0.13955836597E+03 0.16838200765E+03 0.19517307531E+03 0.21802134773E+03 0.23579247875E+03
 0.24815787654E+03 0.25532777599E+03 0.25766345135E+03 0.25532809648E+03 0.24815811246E+03
 0.26230041332E+03 0.24818405916E+03 0.22820811570E+03 0.20271133202E+03 0.17308456496E+03
 0.14162539606E+03 0.11106546049E+03 0.83883821983E+02 0.61735061673E+02 0.45128628455E+02
 0.33506447941E+02 0.25537082755E+02 0.19920419877E+02 0.16058641295E+02 0.13508376463E+02
 0.11892172708E+02 0.10949947912E+02 0.10515747392E+02 0.10516601185E+02 0.10949071866E+02
 0.11893203186E+02 0.13507287645E+02 0.16060427715E+02 0.19918539693E+02 0.25538175367E+02
 0.33506101832E+02 0.45128316631E+02 0.61735267194E+02 0.83883612855E+02 0.11106580595E+03
 0.14162535535E+03 0.17308422153E+03 0.20271158062E+03 0.22820807472E+03 0.24818356286E+03
 0.26230054154E+03 0.27101981109E+03 0.27510651341E+03 0.27510610308E+03 0.27101925868E+03
 0.28088129781E+03 0.27105039639E+03 0.25537818043E+03 0.23327014662E+03 0.20523924640E+03
 0.17308456496E+03 0.13955785424E+03 0.10771629238E+03 0.80119798310E+02 0.58264094600E+02
 0.42339109301E+02 0.31452726643E+02 0.24028155386E+02 0.18851967872E+02 0.15374850245E+02
 0.13129406203E+02 0.11764046731E+02 0.11031497105E+02 0.10803945116E+02 0.11031421294E+02
 0.11764292514E+02 0.13129017185E+02 0.15375476479E+02 0.18850191104E+02 0.24030500012E+02
 0.31450808105E+02 0.42340347439E+02 0.58263732339E+02 0.80119882122E+02 0.10771620919E+03
 0.13955819020E+03 0.17308434321E+03 0.20523988543E+03 0.23326973744E+03 0.25537807572E+03
 0.27105063543E+03 0.28088084795E+03 0.28604888051E+03 0.28762810162E+03 0.28604945738E+03
 0.29192854371E+03 0.28607562679E+03 0.27515737404E+03 0.25772295060E+03 0.23327014662E+03
 0.20271133202E+03 0.16838221054E+03 0.13348972905E+03 0.10129247755E+03 0.74245792575E+02
 0.53510898790E+02 0.38855073331E+02 0.29020519417E+02 0.22296681192E+02 0.17680256856E+02
 0.14651683002E+02 0.12749077520E+02 0.11652571308E+02 0.11151180455E+02 0.11151791040E+02
 0.11651998458E+02 0.12749737712E+02 0.14651125631E+02 0.17680841573E+02 0.22297555359E+02
 0.29018249980E+02 0.38857073679E+02 0.53509034064E+02 0.74247102602E+02 0.10129184807E+03
 0.13349017272E+03 0.16838165216E+03 0.20271180521E+03 0.23326902270E+03 0.25772363173E+03
 0.27515663606E+03 0.28607587234E+03 0.29192819115E+03 0.29433515384E+03 0.29433469646E+03
 0.29722771229E+03 0.29435229811E+03 0.28766592879E+03 0.27515737404E+03 0.25537818043E+03
 0.22820811570E+03 0.19517290844E+03 0.15919490641E+03 0.12383384847E+03 0.92332371488E+02
 0.66818935917E+02 0.47944564264E+02 0.35002784059E+02 0.26382233954E+02 0.20461909795E+02
 0.16481949602E+02 0.13931636908E+02 0.12387226004E+02 0.11568034788E+02 0.11311973114E+02
 0.11567814633E+02 0.12387778191E+02 0.13930799129E+02 0.16483285206E+02 0.20459694964E+02
 0.26383209347E+02 0.35003846847E+02 0.47943243998E+02 0.66820190697E+02 0.92331230287E+02
 0.12383491207E+03 0.15919430415E+03 0.19517362438E+03 0.22820758470E+03 0.25537868536E+03
 0.27515668051E+03 0.28766555604E+03 0.29435199041E+03 0.29722779487E+03 0.29797032382E+03
 0.29911525972E+03 0.29797732586E+03 0.29435229811E+03 0.28607562679E+03 0.27105039639E+03
 0.24818405916E+03 0.21802040060E+03 0.18281908399E+03 0.14601408521E+03 0.11129395007E+03
 0.81606048074E+02 0.58525765542E+02 0.42073962477E+02 0.31074733365E+02 0.23685637267E+02
 0.18632163947E+02 0.15318732914E+02 0.13247629431E+02 0.12057709850E+02 0.11517030932E+02
 0.11516769034E+02 0.12058040792E+02 0.13247229391E+02 0.15319417197E+02 0.18630919750E+02
 0.23688945454E+02 0.31071048310E+02 0.42075356033E+02 0.58525352565E+02 0.81606425562E+02
 0.11129355446E+03 0.14601438312E+03 0.18281875733E+03 0.21802030812E+03 0.24818407438E+03
 0.27104977886E+03 0.28607603308E+03 0.29435235218E+03 0.29797695731E+03 0.29911509222E+03
 0.29931838555E+03 0.29884731847E+03 0.29671962834E+03 0.29107324881E+03 0.27964411529E+03
 0.26072595176E+03 0.23399646727E+03 0.20089533272E+03 0.16438119809E+03 0.12815277882E+03
 0.95643485910E+02 0.69163408176E+02 0.49493714093E+02 0.35983467905E+02 0.27023873157E+02
 0.20897580588E+02 0.16778543336E+02 0.14141885836E+02 0.12546894788E+02 0.11702433830E+02
 0.11438389044E+02 0.11702204026E+02 0.12547385631E+02 0.14141070608E+02 0.16779798270E+02
 0.20895686127E+02 0.27023946171E+02 0.35985948605E+02 0.49491636320E+02 0.69164446616E+02