   2   2   1   0
  0.1617387E+02  0.2783227E-09  0.2783227E-09  0.4821876E-09  0.5000000E-15
  1.000000000000000E-004
  CAR 
 Pt-hcc                                  
     35.12753666    -45.68867546  301     10.68828022      1.00000000
    -45.689  0.0000E+00  0.0000E+00
    -45.419  0.0000E+00  0.0000E+00
    -45.150  0.0000E+00  0.0000E+00
    -44.881  0.0000E+00  0.0000E+00
    -44.611  0.0000E+00  0.0000E+00
    -44.342  0.0000E+00  0.0000E+00
    -44.072  0.0000E+00  0.0000E+00
    -43.803  0.0000E+00  0.0000E+00
    -43.534  0.0000E+00  0.0000E+00
    -43.264  0.0000E+00  0.0000E+00
    -42.995  0.0000E+00  0.0000E+00
    -42.725  0.0000E+00  0.0000E+00
    -42.456  0.0000E+00  0.0000E+00
    -42.187  0.1581E-08  0.4260E-09
    -41.917  0.7405E-01  0.1995E-01
    -41.648  0.2597E+00  0.8991E-01
    -41.378  0.1117E+00  0.1200E+00
    -41.109  0.0000E+00  0.1200E+00
    -40.840  0.0000E+00  0.1200E+00
    -40.570  0.0000E+00  0.1200E+00
    -40.301  0.0000E+00  0.1200E+00
    -40.032  0.0000E+00  0.1200E+00
    -39.762  0.0000E+00  0.1200E+00
    -39.493  0.0000E+00  0.1200E+00
    -39.223  0.0000E+00  0.1200E+00
    -38.954  0.0000E+00  0.1200E+00
    -38.685  0.0000E+00  0.1200E+00
    -38.415  0.0000E+00  0.1200E+00
    -38.146  0.0000E+00  0.1200E+00
    -37.876  0.0000E+00  0.1200E+00
    -37.607  0.0000E+00  0.1200E+00
    -37.338  0.0000E+00  0.1200E+00
    -37.068  0.0000E+00  0.1200E+00
    -36.799  0.0000E+00  0.1200E+00
    -36.530  0.0000E+00  0.1200E+00
    -36.260  0.0000E+00  0.1200E+00
    -35.991  0.0000E+00  0.1200E+00
    -35.721  0.0000E+00  0.1200E+00
    -35.452  0.0000E+00  0.1200E+00
    -35.183  0.0000E+00  0.1200E+00
    -34.913  0.0000E+00  0.1200E+00
    -34.644  0.0000E+00  0.1200E+00
    -34.374  0.0000E+00  0.1200E+00
    -34.105  0.0000E+00  0.1200E+00
    -33.836  0.0000E+00  0.1200E+00
    -33.566  0.0000E+00  0.1200E+00
    -33.297  0.0000E+00  0.1200E+00
    -33.027  0.0000E+00  0.1200E+00
    -32.758  0.0000E+00  0.1200E+00
    -32.489  0.0000E+00  0.1200E+00
    -32.219  0.0000E+00  0.1200E+00
    -31.950  0.0000E+00  0.1200E+00
    -31.681  0.0000E+00  0.1200E+00
    -31.411  0.0000E+00  0.1200E+00
    -31.142  0.0000E+00  0.1200E+00
    -30.872  0.0000E+00  0.1200E+00
    -30.603  0.0000E+00  0.1200E+00
    -30.334  0.0000E+00  0.1200E+00
    -30.064  0.0000E+00  0.1200E+00
    -29.795  0.0000E+00  0.1200E+00
    -29.525  0.0000E+00  0.1200E+00
    -29.256  0.0000E+00  0.1200E+00
    -28.987  0.0000E+00  0.1200E+00
    -28.717  0.0000E+00  0.1200E+00
    -28.448  0.0000E+00  0.1200E+00
    -28.178  0.0000E+00  0.1200E+00
    -27.909  0.0000E+00  0.1200E+00
    -27.640  0.0000E+00  0.1200E+00
    -27.370  0.0000E+00  0.1200E+00
    -27.101  0.0000E+00  0.1200E+00
    -26.832  0.0000E+00  0.1200E+00
    -26.562  0.0000E+00  0.1200E+00
    -26.293  0.0000E+00  0.1200E+00
    -26.023  0.0000E+00  0.1200E+00
    -25.754  0.0000E+00  0.1200E+00
    -25.485  0.0000E+00  0.1200E+00
    -25.215  0.0000E+00  0.1200E+00
    -24.946  0.0000E+00  0.1200E+00
    -24.676  0.0000E+00  0.1200E+00
    -24.407  0.0000E+00  0.1200E+00
    -24.138  0.0000E+00  0.1200E+00
    -23.868  0.0000E+00  0.1200E+00
    -23.599  0.0000E+00  0.1200E+00
    -23.330  0.0000E+00  0.1200E+00
    -23.060  0.0000E+00  0.1200E+00
    -22.791  0.0000E+00  0.1200E+00
    -22.521  0.0000E+00  0.1200E+00
    -22.252  0.0000E+00  0.1200E+00
    -21.983  0.0000E+00  0.1200E+00
    -21.713  0.0000E+00  0.1200E+00
    -21.444  0.0000E+00  0.1200E+00
    -21.174  0.0000E+00  0.1200E+00
    -20.905  0.0000E+00  0.1200E+00
    -20.636  0.0000E+00  0.1200E+00
    -20.366  0.0000E+00  0.1200E+00
    -20.097  0.0000E+00  0.1200E+00
    -19.827  0.0000E+00  0.1200E+00
    -19.558  0.0000E+00  0.1200E+00
    -19.289  0.0000E+00  0.1200E+00
    -19.019  0.0000E+00  0.1200E+00
    -18.750  0.0000E+00  0.1200E+00
    -18.481  0.0000E+00  0.1200E+00
    -18.211  0.0000E+00  0.1200E+00
    -17.942  0.0000E+00  0.1200E+00
    -17.672  0.0000E+00  0.1200E+00
    -17.403  0.0000E+00  0.1200E+00
    -17.134  0.0000E+00  0.1200E+00
    -16.864  0.0000E+00  0.1200E+00
    -16.595  0.0000E+00  0.1200E+00
    -16.325  0.0000E+00  0.1200E+00
    -16.056  0.0000E+00  0.1200E+00
    -15.787  0.0000E+00  0.1200E+00
    -15.517  0.0000E+00  0.1200E+00
    -15.248  0.0000E+00  0.1200E+00
    -14.979  0.0000E+00  0.1200E+00
    -14.709  0.0000E+00  0.1200E+00
    -14.440  0.0000E+00  0.1200E+00
    -14.170  0.0000E+00  0.1200E+00
    -13.901  0.0000E+00  0.1200E+00
    -13.632  0.0000E+00  0.1200E+00
    -13.362  0.0000E+00  0.1200E+00
    -13.093  0.0000E+00  0.1200E+00
    -12.823  0.0000E+00  0.1200E+00
    -12.554  0.0000E+00  0.1200E+00
    -12.285  0.0000E+00  0.1200E+00
    -12.015  0.0000E+00  0.1200E+00
    -11.746  0.0000E+00  0.1200E+00
    -11.476  0.0000E+00  0.1200E+00
    -11.207  0.0000E+00  0.1200E+00
    -10.938  0.0000E+00  0.1200E+00
    -10.668  0.0000E+00  0.1200E+00
    -10.399  0.0000E+00  0.1200E+00
    -10.130  0.0000E+00  0.1200E+00
     -9.860  0.0000E+00  0.1200E+00
     -9.591  0.0000E+00  0.1200E+00
     -9.321  0.0000E+00  0.1200E+00
     -9.052  0.0000E+00  0.1200E+00
     -8.783  0.0000E+00  0.1200E+00
     -8.513  0.0000E+00  0.1200E+00
     -8.244  0.0000E+00  0.1200E+00
     -7.974  0.0000E+00  0.1200E+00
     -7.705  0.0000E+00  0.1200E+00
     -7.436  0.0000E+00  0.1200E+00
     -7.166  0.0000E+00  0.1200E+00
     -6.897  0.0000E+00  0.1200E+00
     -6.628  0.0000E+00  0.1200E+00
     -6.358  0.0000E+00  0.1200E+00
     -6.089  0.0000E+00  0.1200E+00
     -5.819  0.0000E+00  0.1200E+00
     -5.550  0.0000E+00  0.1200E+00
     -5.281  0.0000E+00  0.1200E+00
     -5.011  0.0000E+00  0.1200E+00
     -4.742  0.0000E+00  0.1200E+00
     -4.472  0.0000E+00  0.1200E+00
     -4.203  0.0000E+00  0.1200E+00
     -3.934  0.0000E+00  0.1200E+00
     -3.664  0.0000E+00  0.1200E+00
     -3.395  0.0000E+00  0.1200E+00
     -3.125  0.0000E+00  0.1200E+00
     -2.856  0.0000E+00  0.1200E+00
     -2.587  0.0000E+00  0.1200E+00
     -2.317  0.0000E+00  0.1200E+00
     -2.048  0.0000E+00  0.1200E+00
     -1.779  0.0000E+00  0.1200E+00
     -1.509  0.0000E+00  0.1200E+00
     -1.240  0.0000E+00  0.1200E+00
     -0.970  0.0000E+00  0.1200E+00
     -0.701  0.0000E+00  0.1200E+00
     -0.432  0.0000E+00  0.1200E+00
     -0.162  0.0000E+00  0.1200E+00
      0.107  0.0000E+00  0.1200E+00
      0.377  0.0000E+00  0.1200E+00
      0.646  0.0000E+00  0.1200E+00
      0.915  0.0000E+00  0.1200E+00
      1.185  0.7466E-05  0.1200E+00
      1.454  0.2699E-03  0.1201E+00
      1.724  0.1270E-02  0.1204E+00
      1.993  0.5914E-03  0.1206E+00
      2.262  0.1462E-02  0.1210E+00
      2.532  0.1667E-02  0.1214E+00
      2.801  0.3718E-02  0.1224E+00
      3.070  0.1297E-02  0.1228E+00
      3.340  0.2210E-02  0.1234E+00
      3.609  0.4674E-02  0.1246E+00
      3.879  0.5821E-02  0.1262E+00
      4.148  0.5260E-02  0.1276E+00
      4.417  0.1078E-01  0.1305E+00
      4.687  0.2658E-01  0.1377E+00
      4.956  0.2321E-01  0.1439E+00
      5.226  0.2439E-01  0.1505E+00
      5.495  0.1749E-01  0.1552E+00
      5.764  0.2595E-01  0.1622E+00
      6.034  0.3885E-01  0.1727E+00
      6.303  0.2759E-01  0.1801E+00
      6.572  0.3494E-01  0.1895E+00
      6.842  0.2565E-01  0.1964E+00
      7.111  0.2873E-01  0.2042E+00
      7.381  0.3724E-01  0.2142E+00
      7.650  0.3776E-01  0.2244E+00
      7.919  0.3298E-01  0.2332E+00
      8.189  0.4372E-01  0.2450E+00
      8.458  0.3217E-01  0.2537E+00
      8.728  0.2979E-01  0.2617E+00
      8.997  0.2236E-01  0.2677E+00
      9.266  0.2415E-01  0.2742E+00
      9.536  0.2917E-01  0.2821E+00
      9.805  0.2681E-01  0.2893E+00
     10.075  0.2647E-01  0.2965E+00
     10.344  0.2564E-01  0.3034E+00
     10.613  0.5076E-01  0.3170E+00
     10.883  0.3358E-01  0.3261E+00
     11.152  0.2553E-01  0.3330E+00
     11.421  0.6516E-02  0.3347E+00
     11.691  0.5713E-02  0.3363E+00
     11.960  0.2181E-02  0.3368E+00
     12.230  0.1503E-02  0.3372E+00
     12.499  0.5322E-02  0.3387E+00
     12.768  0.1355E-01  0.3423E+00
     13.038  0.7065E-02  0.3442E+00
     13.307  0.4090E-02  0.3453E+00
     13.577  0.2329E-02  0.3460E+00
     13.846  0.6240E-02  0.3476E+00
     14.115  0.3843E-02  0.3487E+00
     14.385  0.6396E-02  0.3504E+00
     14.654  0.3409E-02  0.3513E+00
     14.923  0.5299E-02  0.3527E+00
     15.193  0.8571E-02  0.3551E+00
     15.462  0.6201E-02  0.3567E+00
     15.732  0.4929E-02  0.3581E+00
     16.001  0.3978E-02  0.3591E+00
     16.270  0.2939E-02  0.3599E+00
     16.540  0.1366E-02  0.3603E+00
     16.809  0.4775E-02  0.3616E+00
     17.079  0.7607E-02  0.3636E+00
     17.348  0.1311E-01  0.3672E+00
     17.617  0.7122E-02  0.3691E+00
     17.887  0.8414E-02  0.3713E+00
     18.156  0.5021E-02  0.3727E+00
     18.426  0.9665E-02  0.3753E+00
     18.695  0.5467E-02  0.3768E+00
     18.964  0.5421E-02  0.3782E+00
     19.234  0.6708E-02  0.3800E+00
     19.503  0.8994E-02  0.3825E+00
     19.772  0.9896E-02  0.3851E+00
     20.042  0.7369E-02  0.3871E+00
     20.311  0.2953E-02  0.3879E+00
     20.581  0.6925E-02  0.3898E+00
     20.850  0.9778E-02  0.3924E+00
     21.119  0.8472E-02  0.3947E+00
     21.389  0.2972E-02  0.3955E+00
     21.658  0.4441E-02  0.3967E+00
     21.928  0.9995E-02  0.3994E+00
     22.197  0.4642E-02  0.4006E+00
     22.466  0.3678E-02  0.4016E+00
     22.736  0.1169E-01  0.4048E+00
     23.005  0.1212E-01  0.4080E+00
     23.274  0.1000E-01  0.4107E+00
     23.544  0.5739E-02  0.4123E+00
     23.813  0.8599E-02  0.4146E+00
     24.083  0.3780E-02  0.4156E+00
     24.352  0.6766E-02  0.4174E+00
     24.621  0.1837E-01  0.4224E+00
     24.891  0.1810E-01  0.4273E+00
     25.160  0.1546E-01  0.4314E+00
     25.430  0.1496E-01  0.4354E+00
     25.699  0.1210E-01  0.4387E+00
     25.968  0.1037E-01  0.4415E+00
     26.238  0.1218E-01  0.4448E+00
     26.507  0.2085E-01  0.4504E+00
     26.777  0.1374E-01  0.4541E+00
     27.046  0.1577E-01  0.4583E+00
     27.315  0.1092E-01  0.4613E+00
     27.585  0.1364E-01  0.4650E+00
     27.854  0.1061E-01  0.4678E+00
     28.123  0.6703E-02  0.4696E+00
     28.393  0.7870E-02  0.4717E+00
     28.662  0.6406E-02  0.4735E+00
     28.932  0.3707E-02  0.4745E+00
     29.201  0.6057E-02  0.4761E+00
     29.470  0.4079E-02  0.4772E+00
     29.740  0.2138E-02  0.4778E+00
     30.009  0.5587E-02  0.4793E+00
     30.279  0.1177E-02  0.4796E+00
     30.548  0.6907E-03  0.4798E+00
     30.817  0.5665E-04  0.4798E+00
     31.087  0.5516E-03  0.4799E+00
     31.356  0.8017E-06  0.4800E+00
     31.626  0.1851E-03  0.4800E+00
     31.895  0.0000E+00  0.4800E+00
     32.164  0.0000E+00  0.4800E+00
     32.434  0.0000E+00  0.4800E+00
     32.703  0.0000E+00  0.4800E+00
     32.972  0.0000E+00  0.4800E+00
     33.242  0.0000E+00  0.4800E+00
     33.511  0.0000E+00  0.4800E+00
     33.781  0.0000E+00  0.4800E+00
     34.050  0.0000E+00  0.4800E+00
     34.319  0.0000E+00  0.4800E+00
     34.589  0.0000E+00  0.4800E+00
     34.858  0.0000E+00  0.4800E+00
     35.128  0.0000E+00  0.4800E+00
     35.12753666    -45.68867546  301     10.68828022      1.00000000
    -45.689  0.0000E+00  0.0000E+00  0.0000E+00  0.0000E+00  0.0000E+00  0.0000E+00  0.0000E+00  0.0000E+00  0.0000E+00
    -45.419  0.0000E+00  0.0000E+00  0.0000E+00  0.0000E+00  0.0000E+00  0.0000E+00  0.0000E+00  0.0000E+00  0.0000E+00
    -45.150  0.0000E+00  0.0000E+00  0.0000E+00  0.0000E+00  0.0000E+00  0.0000E+00  0.0000E+00  0.0000E+00  0.0000E+00
    -44.881  0.0000E+00  0.0000E+00  0.0000E+00  0.0000E+00  0.0000E+00  0.0000E+00  0.0000E+00  0.0000E+00  0.0000E+00
    -44.611  0.0000E+00  0.0000E+00  0.0000E+00  0.0000E+00  0.0000E+00  0.0000E+00  0.0000E+00  0.0000E+00  0.0000E+00
    -44.342  0.0000E+00  0.0000E+00  0.0000E+00  0.0000E+00  0.0000E+00  0.0000E+00  0.0000E+00  0.0000E+00  0.0000E+00
    -44.072  0.0000E+00  0.0000E+00  0.0000E+00  0.0000E+00  0.0000E+00  0.0000E+00  0.0000E+00  0.0000E+00  0.0000E+00
    -43.803  0.0000E+00  0.0000E+00  0.0000E+00  0.0000E+00  0.0000E+00  0.0000E+00  0.0000E+00  0.0000E+00  0.0000E+00
    -43.534  0.0000E+00  0.0000E+00  0.0000E+00  0.0000E+00  0.0000E+00  0.0000E+00  0.0000E+00  0.0000E+00  0.0000E+00
    -43.264  0.0000E+00  0.0000E+00  0.0000E+00  0.0000E+00  0.0000E+00  0.0000E+00  0.0000E+00  0.0000E+00  0.0000E+00
    -42.995  0.0000E+00  0.0000E+00  0.0000E+00  0.0000E+00  0.0000E+00  0.0000E+00  0.0000E+00  0.0000E+00  0.0000E+00
    -42.725  0.0000E+00  0.0000E+00  0.0000E+00  0.0000E+00  0.0000E+00  0.0000E+00  0.0000E+00  0.0000E+00  0.0000E+00
    -42.456  0.0000E+00  0.0000E+00  0.0000E+00  0.0000E+00  0.0000E+00  0.0000E+00  0.0000E+00  0.0000E+00  0.0000E+00
    -42.187  0.3429E-12  0.3812E-07  0.1547E-08  0.3812E-07  0.8589E-13  0.2482E-13  0.3575E-12  0.2482E-13  0.8589E-13
    -41.917  0.6430E-04  0.1784E+01  0.8038E-01  0.1784E+01  0.2828E-04  0.2381E-05  0.3612E-04  0.2381E-05  0.2828E-04
    -41.648  0.1807E-03  0.5176E+01  0.2517E+01  0.5176E+01  0.1243E-03  0.3157E-04  0.8448E-04  0.3157E-04  0.1243E-03
    -41.378  0.1677E-04  0.3932E+00  0.4757E+01  0.3932E+00  0.4755E-05  0.2077E-04  0.2341E-04  0.2077E-04  0.4755E-05
    -41.109  0.0000E+00  0.0000E+00  0.0000E+00  0.0000E+00  0.0000E+00  0.0000E+00  0.0000E+00  0.0000E+00  0.0000E+00
    -40.840  0.0000E+00  0.0000E+00  0.0000E+00  0.0000E+00  0.0000E+00  0.0000E+00  0.0000E+00  0.0000E+00  0.0000E+00
    -40.570  0.0000E+00  0.0000E+00  0.0000E+00  0.0000E+00  0.0000E+00  0.0000E+00  0.0000E+00  0.0000E+00  0.0000E+00
    -40.301  0.0000E+00  0.0000E+00  0.0000E+00  0.0000E+00  0.0000E+00  0.0000E+00  0.0000E+00  0.0000E+00  0.0000E+00
    -40.032  0.0000E+00  0.0000E+00  0.0000E+00  0.0000E+00  0.0000E+00  0.0000E+00  0.0000E+00  0.0000E+00  0.0000E+00
    -39.762  0.0000E+00  0.0000E+00  0.0000E+00  0.0000E+00  0.0000E+00  0.0000E+00  0.0000E+00  0.0000E+00  0.0000E+00
    -39.493  0.0000E+00  0.0000E+00  0.0000E+00  0.0000E+00  0.0000E+00  0.0000E+00  0.0000E+00  0.0000E+00  0.0000E+00
    -39.223  0.0000E+00  0.0000E+00  0.0000E+00  0.0000E+00  0.0000E+00  0.0000E+00  0.0000E+00  0.0000E+00  0.0000E+00
    -38.954  0.0000E+00  0.0000E+00  0.0000E+00  0.0000E+00  0.0000E+00  0.0000E+00  0.0000E+00  0.0000E+00  0.0000E+00
    -38.685  0.0000E+00  0.0000E+00  0.0000E+00  0.0000E+00  0.0000E+00  0.0000E+00  0.0000E+00  0.0000E+00  0.0000E+00
    -38.415  0.0000E+00  0.0000E+00  0.0000E+00  0.0000E+00  0.0000E+00  0.0000E+00  0.0000E+00  0.0000E+00  0.0000E+00
    -38.146  0.0000E+00  0.0000E+00  0.0000E+00  0.0000E+00  0.0000E+00  0.0000E+00  0.0000E+00  0.0000E+00  0.0000E+00
    -37.876  0.0000E+00  0.0000E+00  0.0000E+00  0.0000E+00  0.0000E+00  0.0000E+00  0.0000E+00  0.0000E+00  0.0000E+00
    -37.607  0.0000E+00  0.0000E+00  0.0000E+00  0.0000E+00  0.0000E+00  0.0000E+00  0.0000E+00  0.0000E+00  0.0000E+00
    -37.338  0.0000E+00  0.0000E+00  0.0000E+00  0.0000E+00  0.0000E+00  0.0000E+00  0.0000E+00  0.0000E+00  0.0000E+00
    -37.068  0.0000E+00  0.0000E+00  0.0000E+00  0.0000E+00  0.0000E+00  0.0000E+00  0.0000E+00  0.0000E+00  0.0000E+00
    -36.799  0.0000E+00  0.0000E+00  0.0000E+00  0.0000E+00  0.0000E+00  0.0000E+00  0.0000E+00  0.0000E+00  0.0000E+00
    -36.530  0.0000E+00  0.0000E+00  0.0000E+00  0.0000E+00  0.0000E+00  0.0000E+00  0.0000E+00  0.0000E+00  0.0000E+00
    -36.260  0.0000E+00  0.0000E+00  0.0000E+00  0.0000E+00  0.0000E+00  0.0000E+00  0.0000E+00  0.0000E+00  0.0000E+00
    -35.991  0.0000E+00  0.0000E+00  0.0000E+00  0.0000E+00  0.0000E+00  0.0000E+00  0.0000E+00  0.0000E+00  0.0000E+00
    -35.721  0.0000E+00  0.0000E+00  0.0000E+00  0.0000E+00  0.0000E+00  0.0000E+00  0.0000E+00  0.0000E+00  0.0000E+00
    -35.452  0.0000E+00  0.0000E+00  0.0000E+00  0.0000E+00  0.0000E+00  0.0000E+00  0.0000E+00  0.0000E+00  0.0000E+00
    -35.183  0.0000E+00  0.0000E+00  0.0000E+00  0.0000E+00  0.0000E+00  0.0000E+00  0.0000E+00  0.0000E+00  0.0000E+00
    -34.913  0.0000E+00  0.0000E+00  0.0000E+00  0.0000E+00  0.0000E+00  0.0000E+00  0.0000E+00  0.0000E+00  0.0000E+00
    -34.644  0.0000E+00  0.0000E+00  0.0000E+00  0.0000E+00  0.0000E+00  0.0000E+00  0.0000E+00  0.0000E+00  0.0000E+00
    -34.374  0.0000E+00  0.0000E+00  0.0000E+00  0.0000E+00  0.0000E+00  0.0000E+00  0.0000E+00  0.0000E+00  0.0000E+00
    -34.105  0.0000E+00  0.0000E+00  0.0000E+00  0.0000E+00  0.0000E+00  0.0000E+00  0.0000E+00  0.0000E+00  0.0000E+00
    -33.836  0.0000E+00  0.0000E+00  0.0000E+00  0.0000E+00  0.0000E+00  0.0000E+00  0.0000E+00  0.0000E+00  0.0000E+00
    -33.566  0.0000E+00  0.0000E+00  0.0000E+00  0.0000E+00  0.0000E+00  0.0000E+00  0.0000E+00  0.0000E+00  0.0000E+00
    -33.297  0.0000E+00  0.0000E+00  0.0000E+00  0.0000E+00  0.0000E+00  0.0000E+00  0.0000E+00  0.0000E+00  0.0000E+00
    -33.027  0.0000E+00  0.0000E+00  0.0000E+00  0.0000E+00  0.0000E+00  0.0000E+00  0.0000E+00  0.0000E+00  0.0000E+00
    -32.758  0.0000E+00  0.0000E+00  0.0000E+00  0.0000E+00  0.0000E+00  0.0000E+00  0.0000E+00  0.0000E+00  0.0000E+00
    -32.489  0.0000E+00  0.0000E+00  0.0000E+00  0.0000E+00  0.0000E+00  0.0000E+00  0.0000E+00  0.0000E+00  0.0000E+00
    -32.219  0.0000E+00  0.0000E+00  0.0000E+00  0.0000E+00  0.0000E+00  0.0000E+00  0.0000E+00  0.0000E+00  0.0000E+00
    -31.950  0.0000E+00  0.0000E+00  0.0000E+00  0.0000E+00  0.0000E+00  0.0000E+00  0.0000E+00  0.0000E+00  0.0000E+00
    -31.681  0.0000E+00  0.0000E+00  0.0000E+00  0.0000E+00  0.0000E+00  0.0000E+00  0.0000E+00  0.0000E+00  0.0000E+00
    -31.411  0.0000E+00  0.0000E+00  0.0000E+00  0.0000E+00  0.0000E+00  0.0000E+00  0.0000E+00  0.0000E+00  0.0000E+00
    -31.142  0.0000E+00  0.0000E+00  0.0000E+00  0.0000E+00  0.0000E+00  0.0000E+00  0.0000E+00  0.0000E+00  0.0000E+00
    -30.872  0.0000E+00  0.0000E+00  0.0000E+00  0.0000E+00  0.0000E+00  0.0000E+00  0.0000E+00  0.0000E+00  0.0000E+00
    -30.603  0.0000E+00  0.0000E+00  0.0000E+00  0.0000E+00  0.0000E+00  0.0000E+00  0.0000E+00  0.0000E+00  0.0000E+00
    -30.334  0.0000E+00  0.0000E+00  0.0000E+00  0.0000E+00  0.0000E+00  0.0000E+00  0.0000E+00  0.0000E+00  0.0000E+00
    -30.064  0.0000E+00  0.0000E+00  0.0000E+00  0.0000E+00  0.0000E+00  0.0000E+00  0.0000E+00  0.0000E+00  0.0000E+00
    -29.795  0.0000E+00  0.0000E+00  0.0000E+00  0.0000E+00  0.0000E+00  0.0000E+00  0.0000E+00  0.0000E+00  0.0000E+00
    -29.525  0.0000E+00  0.0000E+00  0.0000E+00  0.0000E+00  0.0000E+00  0.0000E+00  0.0000E+00  0.0000E+00  0.0000E+00
    -29.256  0.0000E+00  0.0000E+00  0.0000E+00  0.0000E+00  0.0000E+00  0.0000E+00  0.0000E+00  0.0000E+00  0.0000E+00
    -28.987  0.0000E+00  0.0000E+00  0.0000E+00  0.0000E+00  0.0000E+00  0.0000E+00  0.0000E+00  0.0000E+00  0.0000E+00
    -28.717  0.0000E+00  0.0000E+00  0.0000E+00  0.0000E+00  0.0000E+00  0.0000E+00  0.0000E+00  0.0000E+00  0.0000E+00
    -28.448  0.0000E+00  0.0000E+00  0.0000E+00  0.0000E+00  0.0000E+00  0.0000E+00  0.0000E+00  0.0000E+00  0.0000E+00
    -28.178  0.0000E+00  0.0000E+00  0.0000E+00  0.0000E+00  0.0000E+00  0.0000E+00  0.0000E+00  0.0000E+00  0.0000E+00
    -27.909  0.0000E+00  0.0000E+00  0.0000E+00  0.0000E+00  0.0000E+00  0.0000E+00  0.0000E+00  0.0000E+00  0.0000E+00
    -27.640  0.0000E+00  0.0000E+00  0.0000E+00  0.0000E+00  0.0000E+00  0.0000E+00  0.0000E+00  0.0000E+00  0.0000E+00
    -27.370  0.0000E+00  0.0000E+00  0.0000E+00  0.0000E+00  0.0000E+00  0.0000E+00  0.0000E+00  0.0000E+00  0.0000E+00
    -27.101  0.0000E+00  0.0000E+00  0.0000E+00  0.0000E+00  0.0000E+00  0.0000E+00  0.0000E+00  0.0000E+00  0.0000E+00
    -26.832  0.0000E+00  0.0000E+00  0.0000E+00  0.0000E+00  0.0000E+00  0.0000E+00  0.0000E+00  0.0000E+00  0.0000E+00
    -26.562  0.0000E+00  0.0000E+00  0.0000E+00  0.0000E+00  0.0000E+00  0.0000E+00  0.0000E+00  0.0000E+00  0.0000E+00
    -26.293  0.0000E+00  0.0000E+00  0.0000E+00  0.0000E+00  0.0000E+00  0.0000E+00  0.0000E+00  0.0000E+00  0.0000E+00
    -26.023  0.0000E+00  0.0000E+00  0.0000E+00  0.0000E+00  0.0000E+00  0.0000E+00  0.0000E+00  0.0000E+00  0.0000E+00
    -25.754  0.0000E+00  0.0000E+00  0.0000E+00  0.0000E+00  0.0000E+00  0.0000E+00  0.0000E+00  0.0000E+00  0.0000E+00
    -25.485  0.0000E+00  0.0000E+00  0.0000E+00  0.0000E+00  0.0000E+00  0.0000E+00  0.0000E+00  0.0000E+00  0.0000E+00
    -25.215  0.0000E+00  0.0000E+00  0.0000E+00  0.0000E+00  0.0000E+00  0.0000E+00  0.0000E+00  0.0000E+00  0.0000E+00
    -24.946  0.0000E+00  0.0000E+00  0.0000E+00  0.0000E+00  0.0000E+00  0.0000E+00  0.0000E+00  0.0000E+00  0.0000E+00
    -24.676  0.0000E+00  0.0000E+00  0.0000E+00  0.0000E+00  0.0000E+00  0.0000E+00  0.0000E+00  0.0000E+00  0.0000E+00
    -24.407  0.0000E+00  0.0000E+00  0.0000E+00  0.0000E+00  0.0000E+00  0.0000E+00  0.0000E+00  0.0000E+00  0.0000E+00
    -24.138  0.0000E+00  0.0000E+00  0.0000E+00  0.0000E+00  0.0000E+00  0.0000E+00  0.0000E+00  0.0000E+00  0.0000E+00
    -23.868  0.0000E+00  0.0000E+00  0.0000E+00  0.0000E+00  0.0000E+00  0.0000E+00  0.0000E+00  0.0000E+00  0.0000E+00
    -23.599  0.0000E+00  0.0000E+00  0.0000E+00  0.0000E+00  0.0000E+00  0.0000E+00  0.0000E+00  0.0000E+00  0.0000E+00
    -23.330  0.0000E+00  0.0000E+00  0.0000E+00  0.0000E+00  0.0000E+00  0.0000E+00  0.0000E+00  0.0000E+00  0.0000E+00
    -23.060  0.0000E+00  0.0000E+00  0.0000E+00  0.0000E+00  0.0000E+00  0.0000E+00  0.0000E+00  0.0000E+00  0.0000E+00
    -22.791  0.0000E+00  0.0000E+00  0.0000E+00  0.0000E+00  0.0000E+00  0.0000E+00  0.0000E+00  0.0000E+00  0.0000E+00
    -22.521  0.0000E+00  0.0000E+00  0.0000E+00  0.0000E+00  0.0000E+00  0.0000E+00  0.0000E+00  0.0000E+00  0.0000E+00
    -22.252  0.0000E+00  0.0000E+00  0.0000E+00  0.0000E+00  0.0000E+00  0.0000E+00  0.0000E+00  0.0000E+00  0.0000E+00
    -21.983  0.0000E+00  0.0000E+00  0.0000E+00  0.0000E+00  0.0000E+00  0.0000E+00  0.0000E+00  0.0000E+00  0.0000E+00
    -21.713  0.0000E+00  0.0000E+00  0.0000E+00  0.0000E+00  0.0000E+00  0.0000E+00  0.0000E+00  0.0000E+00  0.0000E+00
    -21.444  0.0000E+00  0.0000E+00  0.0000E+00  0.0000E+00  0.0000E+00  0.0000E+00  0.0000E+00  0.0000E+00  0.0000E+00
    -21.174  0.0000E+00  0.0000E+00  0.0000E+00  0.0000E+00  0.0000E+00  0.0000E+00  0.0000E+00  0.0000E+00  0.0000E+00
    -20.905  0.0000E+00  0.0000E+00  0.0000E+00  0.0000E+00  0.0000E+00  0.0000E+00  0.0000E+00  0.0000E+00  0.0000E+00
    -20.636  0.0000E+00  0.0000E+00  0.0000E+00  0.0000E+00  0.0000E+00  0.0000E+00  0.0000E+00  0.0000E+00  0.0000E+00
    -20.366  0.0000E+00  0.0000E+00  0.0000E+00  0.0000E+00  0.0000E+00  0.0000E+00  0.0000E+00  0.0000E+00  0.0000E+00
    -20.097  0.0000E+00  0.0000E+00  0.0000E+00  0.0000E+00  0.0000E+00  0.0000E+00  0.0000E+00  0.0000E+00  0.0000E+00
    -19.827  0.0000E+00  0.0000E+00  0.0000E+00  0.0000E+00  0.0000E+00  0.0000E+00  0.0000E+00  0.0000E+00  0.0000E+00
    -19.558  0.0000E+00  0.0000E+00  0.0000E+00  0.0000E+00  0.0000E+00  0.0000E+00  0.0000E+00  0.0000E+00  0.0000E+00
    -19.289  0.0000E+00  0.0000E+00  0.0000E+00  0.0000E+00  0.0000E+00  0.0000E+00  0.0000E+00  0.0000E+00  0.0000E+00
    -19.019  0.0000E+00  0.0000E+00  0.0000E+00  0.0000E+00  0.0000E+00  0.0000E+00  0.0000E+00  0.0000E+00  0.0000E+00
    -18.750  0.0000E+00  0.0000E+00  0.0000E+00  0.0000E+00  0.0000E+00  0.0000E+00  0.0000E+00  0.0000E+00  0.0000E+00
    -18.481  0.0000E+00  0.0000E+00  0.0000E+00  0.0000E+00  0.0000E+00  0.0000E+00  0.0000E+00  0.0000E+00  0.0000E+00
    -18.211  0.0000E+00  0.0000E+00  0.0000E+00  0.0000E+00  0.0000E+00  0.0000E+00  0.0000E+00  0.0000E+00  0.0000E+00
    -17.942  0.0000E+00  0.0000E+00  0.0000E+00  0.0000E+00  0.0000E+00  0.0000E+00  0.0000E+00  0.0000E+00  0.0000E+00
    -17.672  0.0000E+00  0.0000E+00  0.0000E+00  0.0000E+00  0.0000E+00  0.0000E+00  0.0000E+00  0.0000E+00  0.0000E+00
    -17.403  0.0000E+00  0.0000E+00  0.0000E+00  0.0000E+00  0.0000E+00  0.0000E+00  0.0000E+00  0.0000E+00  0.0000E+00
    -17.134  0.0000E+00  0.0000E+00  0.0000E+00  0.0000E+00  0.0000E+00  0.0000E+00  0.0000E+00  0.0000E+00  0.0000E+00
    -16.864  0.0000E+00  0.0000E+00  0.0000E+00  0.0000E+00  0.0000E+00  0.0000E+00  0.0000E+00  0.0000E+00  0.0000E+00
    -16.595  0.0000E+00  0.0000E+00  0.0000E+00  0.0000E+00  0.0000E+00  0.0000E+00  0.0000E+00  0.0000E+00  0.0000E+00
    -16.325  0.0000E+00  0.0000E+00  0.0000E+00  0.0000E+00  0.0000E+00  0.0000E+00  0.0000E+00  0.0000E+00  0.0000E+00
    -16.056  0.0000E+00  0.0000E+00  0.0000E+00  0.0000E+00  0.0000E+00  0.0000E+00  0.0000E+00  0.0000E+00  0.0000E+00
    -15.787  0.0000E+00  0.0000E+00  0.0000E+00  0.0000E+00  0.0000E+00  0.0000E+00  0.0000E+00  0.0000E+00  0.0000E+00
    -15.517  0.0000E+00  0.0000E+00  0.0000E+00  0.0000E+00  0.0000E+00  0.0000E+00  0.0000E+00  0.0000E+00  0.0000E+00
    -15.248  0.0000E+00  0.0000E+00  0.0000E+00  0.0000E+00  0.0000E+00  0.0000E+00  0.0000E+00  0.0000E+00  0.0000E+00
    -14.979  0.0000E+00  0.0000E+00  0.0000E+00  0.0000E+00  0.0000E+00  0.0000E+00  0.0000E+00  0.0000E+00  0.0000E+00
    -14.709  0.0000E+00  0.0000E+00  0.0000E+00  0.0000E+00  0.0000E+00  0.0000E+00  0.0000E+00  0.0000E+00  0.0000E+00
    -14.440  0.0000E+00  0.0000E+00  0.0000E+00  0.0000E+00  0.0000E+00  0.0000E+00  0.0000E+00  0.0000E+00  0.0000E+00
    -14.170  0.0000E+00  0.0000E+00  0.0000E+00  0.0000E+00  0.0000E+00  0.0000E+00  0.0000E+00  0.0000E+00  0.0000E+00
    -13.901  0.0000E+00  0.0000E+00  0.0000E+00  0.0000E+00  0.0000E+00  0.0000E+00  0.0000E+00  0.0000E+00  0.0000E+00
    -13.632  0.0000E+00  0.0000E+00  0.0000E+00  0.0000E+00  0.0000E+00  0.0000E+00  0.0000E+00  0.0000E+00  0.0000E+00
    -13.362  0.0000E+00  0.0000E+00  0.0000E+00  0.0000E+00  0.0000E+00  0.0000E+00  0.0000E+00  0.0000E+00  0.0000E+00
    -13.093  0.0000E+00  0.0000E+00  0.0000E+00  0.0000E+00  0.0000E+00  0.0000E+00  0.0000E+00  0.0000E+00  0.0000E+00
    -12.823  0.0000E+00  0.0000E+00  0.0000E+00  0.0000E+00  0.0000E+00  0.0000E+00  0.0000E+00  0.0000E+00  0.0000E+00
    -12.554  0.0000E+00  0.0000E+00  0.0000E+00  0.0000E+00  0.0000E+00  0.0000E+00  0.0000E+00  0.0000E+00  0.0000E+00
    -12.285  0.0000E+00  0.0000E+00  0.0000E+00  0.0000E+00  0.0000E+00  0.0000E+00  0.0000E+00  0.0000E+00  0.0000E+00
    -12.015  0.0000E+00  0.0000E+00  0.0000E+00  0.0000E+00  0.0000E+00  0.0000E+00  0.0000E+00  0.0000E+00  0.0000E+00
    -11.746  0.0000E+00  0.0000E+00  0.0000E+00  0.0000E+00  0.0000E+00  0.0000E+00  0.0000E+00  0.0000E+00  0.0000E+00
    -11.476  0.0000E+00  0.0000E+00  0.0000E+00  0.0000E+00  0.0000E+00  0.0000E+00  0.0000E+00  0.0000E+00  0.0000E+00
    -11.207  0.0000E+00  0.0000E+00  0.0000E+00  0.0000E+00  0.0000E+00  0.0000E+00  0.0000E+00  0.0000E+00  0.0000E+00
    -10.938  0.0000E+00  0.0000E+00  0.0000E+00  0.0000E+00  0.0000E+00  0.0000E+00  0.0000E+00  0.0000E+00  0.0000E+00
    -10.668  0.0000E+00  0.0000E+00  0.0000E+00  0.0000E+00  0.0000E+00  0.0000E+00  0.0000E+00  0.0000E+00  0.0000E+00
    -10.399  0.0000E+00  0.0000E+00  0.0000E+00  0.0000E+00  0.0000E+00  0.0000E+00  0.0000E+00  0.0000E+00  0.0000E+00
    -10.130  0.0000E+00  0.0000E+00  0.0000E+00  0.0000E+00  0.0000E+00  0.0000E+00  0.0000E+00  0.0000E+00  0.0000E+00
     -9.860  0.0000E+00  0.0000E+00  0.0000E+00  0.0000E+00  0.0000E+00  0.0000E+00  0.0000E+00  0.0000E+00  0.0000E+00
     -9.591  0.0000E+00  0.0000E+00  0.0000E+00  0.0000E+00  0.0000E+00  0.0000E+00  0.0000E+00  0.0000E+00  0.0000E+00
     -9.321  0.0000E+00  0.0000E+00  0.0000E+00  0.0000E+00  0.0000E+00  0.0000E+00  0.0000E+00  0.0000E+00  0.0000E+00
     -9.052  0.0000E+00  0.0000E+00  0.0000E+00  0.0000E+00  0.0000E+00  0.0000E+00  0.0000E+00  0.0000E+00  0.0000E+00
     -8.783  0.0000E+00  0.0000E+00  0.0000E+00  0.0000E+00  0.0000E+00  0.0000E+00  0.0000E+00  0.0000E+00  0.0000E+00
     -8.513  0.0000E+00  0.0000E+00  0.0000E+00  0.0000E+00  0.0000E+00  0.0000E+00  0.0000E+00  0.0000E+00  0.0000E+00
     -8.244  0.0000E+00  0.0000E+00  0.0000E+00  0.0000E+00  0.0000E+00  0.0000E+00  0.0000E+00  0.0000E+00  0.0000E+00
     -7.974  0.0000E+00  0.0000E+00  0.0000E+00  0.0000E+00  0.0000E+00  0.0000E+00  0.0000E+00  0.0000E+00  0.0000E+00
     -7.705  0.0000E+00  0.0000E+00  0.0000E+00  0.0000E+00  0.0000E+00  0.0000E+00  0.0000E+00  0.0000E+00  0.0000E+00
     -7.436  0.0000E+00  0.0000E+00  0.0000E+00  0.0000E+00  0.0000E+00  0.0000E+00  0.0000E+00  0.0000E+00  0.0000E+00
     -7.166  0.0000E+00  0.0000E+00  0.0000E+00  0.0000E+00  0.0000E+00  0.0000E+00  0.0000E+00  0.0000E+00  0.0000E+00
     -6.897  0.0000E+00  0.0000E+00  0.0000E+00  0.0000E+00  0.0000E+00  0.0000E+00  0.0000E+00  0.0000E+00  0.0000E+00
     -6.628  0.0000E+00  0.0000E+00  0.0000E+00  0.0000E+00  0.0000E+00  0.0000E+00  0.0000E+00  0.0000E+00  0.0000E+00
     -6.358  0.0000E+00  0.0000E+00  0.0000E+00  0.0000E+00  0.0000E+00  0.0000E+00  0.0000E+00  0.0000E+00  0.0000E+00
     -6.089  0.0000E+00  0.0000E+00  0.0000E+00  0.0000E+00  0.0000E+00  0.0000E+00  0.0000E+00  0.0000E+00  0.0000E+00
     -5.819  0.0000E+00  0.0000E+00  0.0000E+00  0.0000E+00  0.0000E+00  0.0000E+00  0.0000E+00  0.0000E+00  0.0000E+00
     -5.550  0.0000E+00  0.0000E+00  0.0000E+00  0.0000E+00  0.0000E+00  0.0000E+00  0.0000E+00  0.0000E+00  0.0000E+00
     -5.281  0.0000E+00  0.0000E+00  0.0000E+00  0.0000E+00  0.0000E+00  0.0000E+00  0.0000E+00  0.0000E+00  0.0000E+00
     -5.011  0.0000E+00  0.0000E+00  0.0000E+00  0.0000E+00  0.0000E+00  0.0000E+00  0.0000E+00  0.0000E+00  0.0000E+00
     -4.742  0.0000E+00  0.0000E+00  0.0000E+00  0.0000E+00  0.0000E+00  0.0000E+00  0.0000E+00  0.0000E+00  0.0000E+00
     -4.472  0.0000E+00  0.0000E+00  0.0000E+00  0.0000E+00  0.0000E+00  0.0000E+00  0.0000E+00  0.0000E+00  0.0000E+00
     -4.203  0.0000E+00  0.0000E+00  0.0000E+00  0.0000E+00  0.0000E+00  0.0000E+00  0.0000E+00  0.0000E+00  0.0000E+00
     -3.934  0.0000E+00  0.0000E+00  0.0000E+00  0.0000E+00  0.0000E+00  0.0000E+00  0.0000E+00  0.0000E+00  0.0000E+00
     -3.664  0.0000E+00  0.0000E+00  0.0000E+00  0.0000E+00  0.0000E+00  0.0000E+00  0.0000E+00  0.0000E+00  0.0000E+00