   2   2   1   0
  0.1710351E+02  0.2835561E-09  0.2835561E-09  0.4912544E-09  0.5000000E-15
  1.000000000000000E-004
  CAR 
 Pt-hcc                                  
     33.48378051    -46.41490205  301      9.69042904      1.00000000
    -46.415  0.0000E+00  0.0000E+00
    -46.149  0.0000E+00  0.0000E+00
    -45.882  0.0000E+00  0.0000E+00
    -45.616  0.0000E+00  0.0000E+00
    -45.350  0.0000E+00  0.0000E+00
    -45.083  0.0000E+00  0.0000E+00
    -44.817  0.0000E+00  0.0000E+00
    -44.551  0.0000E+00  0.0000E+00
    -44.284  0.0000E+00  0.0000E+00
    -44.018  0.0000E+00  0.0000E+00
    -43.752  0.0000E+00  0.0000E+00
    -43.485  0.0000E+00  0.0000E+00
    -43.219  0.0000E+00  0.0000E+00
    -42.953  0.2580E-08  0.6871E-09
    -42.686  0.8863E-01  0.2361E-01
    -42.420  0.3012E+00  0.1038E+00
    -42.154  0.6073E-01  0.1200E+00
    -41.887  0.0000E+00  0.1200E+00
    -41.621  0.0000E+00  0.1200E+00
    -41.355  0.0000E+00  0.1200E+00
    -41.088  0.0000E+00  0.1200E+00
    -40.822  0.0000E+00  0.1200E+00
    -40.556  0.0000E+00  0.1200E+00
    -40.289  0.0000E+00  0.1200E+00
    -40.023  0.0000E+00  0.1200E+00
    -39.757  0.0000E+00  0.1200E+00
    -39.490  0.0000E+00  0.1200E+00
    -39.224  0.0000E+00  0.1200E+00
    -38.958  0.0000E+00  0.1200E+00
    -38.691  0.0000E+00  0.1200E+00
    -38.425  0.0000E+00  0.1200E+00
    -38.159  0.0000E+00  0.1200E+00
    -37.892  0.0000E+00  0.1200E+00
    -37.626  0.0000E+00  0.1200E+00
    -37.360  0.0000E+00  0.1200E+00
    -37.093  0.0000E+00  0.1200E+00
    -36.827  0.0000E+00  0.1200E+00
    -36.561  0.0000E+00  0.1200E+00
    -36.294  0.0000E+00  0.1200E+00
    -36.028  0.0000E+00  0.1200E+00
    -35.762  0.0000E+00  0.1200E+00
    -35.495  0.0000E+00  0.1200E+00
    -35.229  0.0000E+00  0.1200E+00
    -34.963  0.0000E+00  0.1200E+00
    -34.696  0.0000E+00  0.1200E+00
    -34.430  0.0000E+00  0.1200E+00
    -34.164  0.0000E+00  0.1200E+00
    -33.897  0.0000E+00  0.1200E+00
    -33.631  0.0000E+00  0.1200E+00
    -33.365  0.0000E+00  0.1200E+00
    -33.098  0.0000E+00  0.1200E+00
    -32.832  0.0000E+00  0.1200E+00
    -32.566  0.0000E+00  0.1200E+00
    -32.299  0.0000E+00  0.1200E+00
    -32.033  0.0000E+00  0.1200E+00
    -31.767  0.0000E+00  0.1200E+00
    -31.500  0.0000E+00  0.1200E+00
    -31.234  0.0000E+00  0.1200E+00
    -30.968  0.0000E+00  0.1200E+00
    -30.701  0.0000E+00  0.1200E+00
    -30.435  0.0000E+00  0.1200E+00
    -30.169  0.0000E+00  0.1200E+00
    -29.903  0.0000E+00  0.1200E+00
    -29.636  0.0000E+00  0.1200E+00
    -29.370  0.0000E+00  0.1200E+00
    -29.104  0.0000E+00  0.1200E+00
    -28.837  0.0000E+00  0.1200E+00
    -28.571  0.0000E+00  0.1200E+00
    -28.305  0.0000E+00  0.1200E+00
    -28.038  0.0000E+00  0.1200E+00
    -27.772  0.0000E+00  0.1200E+00
    -27.506  0.0000E+00  0.1200E+00
    -27.239  0.0000E+00  0.1200E+00
    -26.973  0.0000E+00  0.1200E+00
    -26.707  0.0000E+00  0.1200E+00
    -26.440  0.0000E+00  0.1200E+00
    -26.174  0.0000E+00  0.1200E+00
    -25.908  0.0000E+00  0.1200E+00
    -25.641  0.0000E+00  0.1200E+00
    -25.375  0.0000E+00  0.1200E+00
    -25.109  0.0000E+00  0.1200E+00
    -24.842  0.0000E+00  0.1200E+00
    -24.576  0.0000E+00  0.1200E+00
    -24.310  0.0000E+00  0.1200E+00
    -24.043  0.0000E+00  0.1200E+00
    -23.777  0.0000E+00  0.1200E+00
    -23.511  0.0000E+00  0.1200E+00
    -23.244  0.0000E+00  0.1200E+00
    -22.978  0.0000E+00  0.1200E+00
    -22.712  0.0000E+00  0.1200E+00
    -22.445  0.0000E+00  0.1200E+00
    -22.179  0.0000E+00  0.1200E+00
    -21.913  0.0000E+00  0.1200E+00
    -21.646  0.0000E+00  0.1200E+00
    -21.380  0.0000E+00  0.1200E+00
    -21.114  0.0000E+00  0.1200E+00
    -20.847  0.0000E+00  0.1200E+00
    -20.581  0.0000E+00  0.1200E+00
    -20.315  0.0000E+00  0.1200E+00
    -20.048  0.0000E+00  0.1200E+00
    -19.782  0.0000E+00  0.1200E+00
    -19.516  0.0000E+00  0.1200E+00
    -19.249  0.0000E+00  0.1200E+00
    -18.983  0.0000E+00  0.1200E+00
    -18.717  0.0000E+00  0.1200E+00
    -18.450  0.0000E+00  0.1200E+00
    -18.184  0.0000E+00  0.1200E+00
    -17.918  0.0000E+00  0.1200E+00
    -17.651  0.0000E+00  0.1200E+00
    -17.385  0.0000E+00  0.1200E+00
    -17.119  0.0000E+00  0.1200E+00
    -16.852  0.0000E+00  0.1200E+00
    -16.586  0.0000E+00  0.1200E+00
    -16.320  0.0000E+00  0.1200E+00
    -16.053  0.0000E+00  0.1200E+00
    -15.787  0.0000E+00  0.1200E+00
    -15.521  0.0000E+00  0.1200E+00
    -15.254  0.0000E+00  0.1200E+00
    -14.988  0.0000E+00  0.1200E+00
    -14.722  0.0000E+00  0.1200E+00
    -14.455  0.0000E+00  0.1200E+00
    -14.189  0.0000E+00  0.1200E+00
    -13.923  0.0000E+00  0.1200E+00
    -13.656  0.0000E+00  0.1200E+00
    -13.390  0.0000E+00  0.1200E+00
    -13.124  0.0000E+00  0.1200E+00
    -12.857  0.0000E+00  0.1200E+00
    -12.591  0.0000E+00  0.1200E+00
    -12.325  0.0000E+00  0.1200E+00
    -12.058  0.0000E+00  0.1200E+00
    -11.792  0.0000E+00  0.1200E+00
    -11.526  0.0000E+00  0.1200E+00
    -11.259  0.0000E+00  0.1200E+00
    -10.993  0.0000E+00  0.1200E+00
    -10.727  0.0000E+00  0.1200E+00
    -10.460  0.0000E+00  0.1200E+00
    -10.194  0.0000E+00  0.1200E+00
     -9.928  0.0000E+00  0.1200E+00
     -9.662  0.0000E+00  0.1200E+00
     -9.395  0.0000E+00  0.1200E+00
     -9.129  0.0000E+00  0.1200E+00
     -8.863  0.0000E+00  0.1200E+00
     -8.596  0.0000E+00  0.1200E+00
     -8.330  0.0000E+00  0.1200E+00
     -8.064  0.0000E+00  0.1200E+00
     -7.797  0.0000E+00  0.1200E+00
     -7.531  0.0000E+00  0.1200E+00
     -7.265  0.0000E+00  0.1200E+00
     -6.998  0.0000E+00  0.1200E+00
     -6.732  0.0000E+00  0.1200E+00
     -6.466  0.0000E+00  0.1200E+00
     -6.199  0.0000E+00  0.1200E+00
     -5.933  0.0000E+00  0.1200E+00
     -5.667  0.0000E+00  0.1200E+00
     -5.400  0.0000E+00  0.1200E+00
     -5.134  0.0000E+00  0.1200E+00
     -4.868  0.0000E+00  0.1200E+00
     -4.601  0.0000E+00  0.1200E+00
     -4.335  0.0000E+00  0.1200E+00
     -4.069  0.0000E+00  0.1200E+00
     -3.802  0.0000E+00  0.1200E+00
     -3.536  0.0000E+00  0.1200E+00
     -3.270  0.0000E+00  0.1200E+00
     -3.003  0.0000E+00  0.1200E+00
     -2.737  0.0000E+00  0.1200E+00
     -2.471  0.0000E+00  0.1200E+00
     -2.204  0.0000E+00  0.1200E+00
     -1.938  0.0000E+00  0.1200E+00
     -1.672  0.0000E+00  0.1200E+00
     -1.405  0.0000E+00  0.1200E+00
     -1.139  0.0000E+00  0.1200E+00
     -0.873  0.0000E+00  0.1200E+00
     -0.606  0.0000E+00  0.1200E+00
     -0.340  0.0000E+00  0.1200E+00
     -0.074  0.0000E+00  0.1200E+00
      0.193  0.0000E+00  0.1200E+00
      0.459  0.0000E+00  0.1200E+00
      0.725  0.6827E-06  0.1200E+00
      0.992  0.2702E-03  0.1201E+00
      1.258  0.1041E-02  0.1203E+00
      1.524  0.8513E-03  0.1206E+00
      1.791  0.1494E-02  0.1210E+00
      2.057  0.1740E-02  0.1214E+00
      2.323  0.3704E-02  0.1224E+00
      2.590  0.1315E-02  0.1228E+00
      2.856  0.2536E-02  0.1234E+00
      3.122  0.4420E-02  0.1246E+00
      3.389  0.6514E-02  0.1264E+00
      3.655  0.6050E-02  0.1280E+00
      3.921  0.1195E-01  0.1312E+00
      4.188  0.2654E-01  0.1382E+00
      4.454  0.2193E-01  0.1441E+00
      4.720  0.2658E-01  0.1511E+00
      4.987  0.1763E-01  0.1558E+00
      5.253  0.3506E-01  0.1652E+00
      5.519  0.3601E-01  0.1748E+00
      5.786  0.3066E-01  0.1829E+00
      6.052  0.3544E-01  0.1924E+00
      6.318  0.3026E-01  0.2004E+00
      6.585  0.3608E-01  0.2100E+00
      6.851  0.3996E-01  0.2207E+00
      7.117  0.4014E-01  0.2314E+00
      7.384  0.4230E-01  0.2426E+00
      7.650  0.3803E-01  0.2528E+00
      7.916  0.3369E-01  0.2617E+00
      8.183  0.2403E-01  0.2681E+00
      8.449  0.2708E-01  0.2754E+00
      8.715  0.3431E-01  0.2845E+00
      8.982  0.2580E-01  0.2914E+00
      9.248  0.2984E-01  0.2993E+00
      9.514  0.4110E-01  0.3103E+00
      9.781  0.5127E-01  0.3239E+00
     10.047  0.2748E-01  0.3312E+00
     10.313  0.1013E-01  0.3339E+00
     10.579  0.6914E-02  0.3358E+00
     10.846  0.3716E-02  0.3368E+00
     11.112  0.1500E-02  0.3372E+00
     11.378  0.3406E-02  0.3381E+00
     11.645  0.1593E-01  0.3423E+00
     11.911  0.6184E-02  0.3440E+00
     12.177  0.4791E-02  0.3452E+00
     12.444  0.2729E-02  0.3460E+00
     12.710  0.4537E-02  0.3472E+00
     12.976  0.5682E-02  0.3487E+00
     13.243  0.6931E-02  0.3505E+00
     13.509  0.3570E-02  0.3515E+00
     13.775  0.5259E-02  0.3529E+00
     14.042  0.1034E-01  0.3556E+00
     14.308  0.4733E-02  0.3569E+00
     14.574  0.5525E-02  0.3584E+00
     14.841  0.3182E-02  0.3592E+00
     15.107  0.2711E-02  0.3599E+00
     15.373  0.2300E-02  0.3605E+00
     15.640  0.7902E-02  0.3626E+00
     15.906  0.1226E-01  0.3659E+00
     16.172  0.7388E-02  0.3679E+00
     16.439  0.7929E-02  0.3700E+00
     16.705  0.6076E-02  0.3716E+00
     16.971  0.1221E-01  0.3749E+00
     17.238  0.5303E-02  0.3763E+00
     17.504  0.4775E-02  0.3775E+00
     17.770  0.6316E-02  0.3792E+00
     18.037  0.4732E-02  0.3805E+00
     18.303  0.1351E-01  0.3841E+00
     18.569  0.8976E-02  0.3865E+00
     18.836  0.3841E-02  0.3875E+00
     19.102  0.6274E-02  0.3892E+00
     19.368  0.6627E-02  0.3909E+00
     19.635  0.8922E-02  0.3933E+00
     19.901  0.5984E-02  0.3949E+00
     20.167  0.6161E-02  0.3965E+00
     20.434  0.6448E-02  0.3983E+00
     20.700  0.7941E-02  0.4004E+00
     20.966  0.2841E-02  0.4011E+00
     21.233  0.7768E-02  0.4032E+00
     21.499  0.1116E-01  0.4062E+00
     21.765  0.1236E-01  0.4095E+00
     22.032  0.9426E-02  0.4120E+00
     22.298  0.6587E-02  0.4137E+00
     22.564  0.5765E-02  0.4153E+00
     22.831  0.6512E-02  0.4170E+00
     23.097  0.9047E-02  0.4194E+00
     23.363  0.2333E-01  0.4256E+00
     23.630  0.1431E-01  0.4294E+00
     23.896  0.1131E-01  0.4324E+00
     24.162  0.1517E-01  0.4365E+00
     24.429  0.1205E-01  0.4397E+00
     24.695  0.6907E-02  0.4415E+00
     24.961  0.2187E-01  0.4474E+00
     25.228  0.1373E-01  0.4510E+00
     25.494  0.1678E-01  0.4555E+00
     25.760  0.1140E-01  0.4585E+00
     26.027  0.1162E-01  0.4616E+00
     26.293  0.1424E-01  0.4654E+00
     26.559  0.8666E-02  0.4677E+00
     26.826  0.1206E-01  0.4709E+00
     27.092  0.3958E-02  0.4720E+00
     27.358  0.5440E-02  0.4734E+00
     27.625  0.5983E-02  0.4750E+00
     27.891  0.5176E-02  0.4764E+00
     28.157  0.3579E-02  0.4774E+00
     28.424  0.5205E-02  0.4787E+00
     28.690  0.2206E-02  0.4793E+00
     28.956  0.1025E-02  0.4796E+00
     29.223  0.7446E-03  0.4798E+00
     29.489  0.1225E-03  0.4798E+00
     29.755  0.4476E-03  0.4800E+00
     30.022  0.1872E-03  0.4800E+00
     30.288  0.0000E+00  0.4800E+00
     30.554  0.0000E+00  0.4800E+00
     30.820  0.0000E+00  0.4800E+00
     31.087  0.0000E+00  0.4800E+00
     31.353  0.0000E+00  0.4800E+00
     31.619  0.0000E+00  0.4800E+00
     31.886  0.0000E+00  0.4800E+00
     32.152  0.0000E+00  0.4800E+00
     32.418  0.0000E+00  0.4800E+00
     32.685  0.0000E+00  0.4800E+00
     32.951  0.0000E+00  0.4800E+00
     33.217  0.0000E+00  0.4800E+00
     33.484  0.0000E+00  0.4800E+00
     33.48378051    -46.41490205  301      9.69042904      1.00000000
    -46.415  0.0000E+00  0.0000E+00  0.0000E+00  0.0000E+00  0.0000E+00  0.0000E+00  0.0000E+00  0.0000E+00  0.0000E+00
    -46.149  0.0000E+00  0.0000E+00  0.0000E+00  0.0000E+00  0.0000E+00  0.0000E+00  0.0000E+00  0.0000E+00  0.0000E+00
    -45.882  0.0000E+00  0.0000E+00  0.0000E+00  0.0000E+00  0.0000E+00  0.0000E+00  0.0000E+00  0.0000E+00  0.0000E+00
    -45.616  0.0000E+00  0.0000E+00  0.0000E+00  0.0000E+00  0.0000E+00  0.0000E+00  0.0000E+00  0.0000E+00  0.0000E+00
    -45.350  0.0000E+00  0.0000E+00  0.0000E+00  0.0000E+00  0.0000E+00  0.0000E+00  0.0000E+00  0.0000E+00  0.0000E+00
    -45.083  0.0000E+00  0.0000E+00  0.0000E+00  0.0000E+00  0.0000E+00  0.0000E+00  0.0000E+00  0.0000E+00  0.0000E+00
    -44.817  0.0000E+00  0.0000E+00  0.0000E+00  0.0000E+00  0.0000E+00  0.0000E+00  0.0000E+00  0.0000E+00  0.0000E+00
    -44.551  0.0000E+00  0.0000E+00  0.0000E+00  0.0000E+00  0.0000E+00  0.0000E+00  0.0000E+00  0.0000E+00  0.0000E+00
    -44.284  0.0000E+00  0.0000E+00  0.0000E+00  0.0000E+00  0.0000E+00  0.0000E+00  0.0000E+00  0.0000E+00  0.0000E+00
    -44.018  0.0000E+00  0.0000E+00  0.0000E+00  0.0000E+00  0.0000E+00  0.0000E+00  0.0000E+00  0.0000E+00  0.0000E+00
    -43.752  0.0000E+00  0.0000E+00  0.0000E+00  0.0000E+00  0.0000E+00  0.0000E+00  0.0000E+00  0.0000E+00  0.0000E+00
    -43.485  0.0000E+00  0.0000E+00  0.0000E+00  0.0000E+00  0.0000E+00  0.0000E+00  0.0000E+00  0.0000E+00  0.0000E+00
    -43.219  0.0000E+00  0.0000E+00  0.0000E+00  0.0000E+00  0.0000E+00  0.0000E+00  0.0000E+00  0.0000E+00  0.0000E+00
    -42.953  0.4389E-12  0.6250E-07  0.2064E-08  0.6250E-07  0.1396E-12  0.2719E-13  0.4115E-12  0.2719E-13  0.1396E-12
    -42.686  0.5589E-04  0.2147E+01  0.7930E-01  0.2147E+01  0.2296E-04  0.1808E-05  0.3048E-04  0.1808E-05  0.2296E-04
    -42.420  0.1101E-03  0.5248E+01  0.4436E+01  0.5248E+01  0.7849E-04  0.2635E-04  0.5582E-04  0.2635E-04  0.7849E-04
    -42.154  0.6041E-05  0.4469E-01  0.2925E+01  0.4469E-01  0.7072E-06  0.6921E-05  0.6992E-05  0.6921E-05  0.7072E-06
    -41.887  0.0000E+00  0.0000E+00  0.0000E+00  0.0000E+00  0.0000E+00  0.0000E+00  0.0000E+00  0.0000E+00  0.0000E+00
    -41.621  0.0000E+00  0.0000E+00  0.0000E+00  0.0000E+00  0.0000E+00  0.0000E+00  0.0000E+00  0.0000E+00  0.0000E+00
    -41.355  0.0000E+00  0.0000E+00  0.0000E+00  0.0000E+00  0.0000E+00  0.0000E+00  0.0000E+00  0.0000E+00  0.0000E+00
    -41.088  0.0000E+00  0.0000E+00  0.0000E+00  0.0000E+00  0.0000E+00  0.0000E+00  0.0000E+00  0.0000E+00  0.0000E+00
    -40.822  0.0000E+00  0.0000E+00  0.0000E+00  0.0000E+00  0.0000E+00  0.0000E+00  0.0000E+00  0.0000E+00  0.0000E+00
    -40.556  0.0000E+00  0.0000E+00  0.0000E+00  0.0000E+00  0.0000E+00  0.0000E+00  0.0000E+00  0.0000E+00  0.0000E+00
    -40.289  0.0000E+00  0.0000E+00  0.0000E+00  0.0000E+00  0.0000E+00  0.0000E+00  0.0000E+00  0.0000E+00  0.0000E+00
    -40.023  0.0000E+00  0.0000E+00  0.0000E+00  0.0000E+00  0.0000E+00  0.0000E+00  0.0000E+00  0.0000E+00  0.0000E+00
    -39.757  0.0000E+00  0.0000E+00  0.0000E+00  0.0000E+00  0.0000E+00  0.0000E+00  0.0000E+00  0.0000E+00  0.0000E+00
    -39.490  0.0000E+00  0.0000E+00  0.0000E+00  0.0000E+00  0.0000E+00  0.0000E+00  0.0000E+00  0.0000E+00  0.0000E+00
    -39.224  0.0000E+00  0.0000E+00  0.0000E+00  0.0000E+00  0.0000E+00  0.0000E+00  0.0000E+00  0.0000E+00  0.0000E+00
    -38.958  0.0000E+00  0.0000E+00  0.0000E+00  0.0000E+00  0.0000E+00  0.0000E+00  0.0000E+00  0.0000E+00  0.0000E+00
    -38.691  0.0000E+00  0.0000E+00  0.0000E+00  0.0000E+00  0.0000E+00  0.0000E+00  0.0000E+00  0.0000E+00  0.0000E+00
    -38.425  0.0000E+00  0.0000E+00  0.0000E+00  0.0000E+00  0.0000E+00  0.0000E+00  0.0000E+00  0.0000E+00  0.0000E+00
    -38.159  0.0000E+00  0.0000E+00  0.0000E+00  0.0000E+00  0.0000E+00  0.0000E+00  0.0000E+00  0.0000E+00  0.0000E+00
    -37.892  0.0000E+00  0.0000E+00  0.0000E+00  0.0000E+00  0.0000E+00  0.0000E+00  0.0000E+00  0.0000E+00  0.0000E+00
    -37.626  0.0000E+00  0.0000E+00  0.0000E+00  0.0000E+00  0.0000E+00  0.0000E+00  0.0000E+00  0.0000E+00  0.0000E+00
    -37.360  0.0000E+00  0.0000E+00  0.0000E+00  0.0000E+00  0.0000E+00  0.0000E+00  0.0000E+00  0.0000E+00  0.0000E+00
    -37.093  0.0000E+00  0.0000E+00  0.0000E+00  0.0000E+00  0.0000E+00  0.0000E+00  0.0000E+00  0.0000E+00  0.0000E+00
    -36.827  0.0000E+00  0.0000E+00  0.0000E+00  0.0000E+00  0.0000E+00  0.0000E+00  0.0000E+00  0.0000E+00  0.0000E+00
    -36.561  0.0000E+00  0.0000E+00  0.0000E+00  0.0000E+00  0.0000E+00  0.0000E+00  0.0000E+00  0.0000E+00  0.0000E+00
    -36.294  0.0000E+00  0.0000E+00  0.0000E+00  0.0000E+00  0.0000E+00  0.0000E+00  0.0000E+00  0.0000E+00  0.0000E+00
    -36.028  0.0000E+00  0.0000E+00  0.0000E+00  0.0000E+00  0.0000E+00  0.0000E+00  0.0000E+00  0.0000E+00  0.0000E+00
    -35.762  0.0000E+00  0.0000E+00  0.0000E+00  0.0000E+00  0.0000E+00  0.0000E+00  0.0000E+00  0.0000E+00  0.0000E+00
    -35.495  0.0000E+00  0.0000E+00  0.0000E+00  0.0000E+00  0.0000E+00  0.0000E+00  0.0000E+00  0.0000E+00  0.0000E+00
    -35.229  0.0000E+00  0.0000E+00  0.0000E+00  0.0000E+00  0.0000E+00  0.0000E+00  0.0000E+00  0.0000E+00  0.0000E+00
    -34.963  0.0000E+00  0.0000E+00  0.0000E+00  0.0000E+00  0.0000E+00  0.0000E+00  0.0000E+00  0.0000E+00  0.0000E+00
    -34.696  0.0000E+00  0.0000E+00  0.0000E+00  0.0000E+00  0.0000E+00  0.0000E+00  0.0000E+00  0.0000E+00  0.0000E+00
    -34.430  0.0000E+00  0.0000E+00  0.0000E+00  0.0000E+00  0.0000E+00  0.0000E+00  0.0000E+00  0.0000E+00  0.0000E+00
    -34.164  0.0000E+00  0.0000E+00  0.0000E+00  0.0000E+00  0.0000E+00  0.0000E+00  0.0000E+00  0.0000E+00  0.0000E+00
    -33.897  0.0000E+00  0.0000E+00  0.0000E+00  0.0000E+00  0.0000E+00  0.0000E+00  0.0000E+00  0.0000E+00  0.0000E+00
    -33.631  0.0000E+00  0.0000E+00  0.0000E+00  0.0000E+00  0.0000E+00  0.0000E+00  0.0000E+00  0.0000E+00  0.0000E+00
    -33.365  0.0000E+00  0.0000E+00  0.0000E+00  0.0000E+00  0.0000E+00  0.0000E+00  0.0000E+00  0.0000E+00  0.0000E+00
    -33.098  0.0000E+00  0.0000E+00  0.0000E+00  0.0000E+00  0.0000E+00  0.0000E+00  0.0000E+00  0.0000E+00  0.0000E+00
    -32.832  0.0000E+00  0.0000E+00  0.0000E+00  0.0000E+00  0.0000E+00  0.0000E+00  0.0000E+00  0.0000E+00  0.0000E+00
    -32.566  0.0000E+00  0.0000E+00  0.0000E+00  0.0000E+00  0.0000E+00  0.0000E+00  0.0000E+00  0.0000E+00  0.0000E+00
    -32.299  0.0000E+00  0.0000E+00  0.0000E+00  0.0000E+00  0.0000E+00  0.0000E+00  0.0000E+00  0.0000E+00  0.0000E+00
    -32.033  0.0000E+00  0.0000E+00  0.0000E+00  0.0000E+00  0.0000E+00  0.0000E+00  0.0000E+00  0.0000E+00  0.0000E+00
    -31.767  0.0000E+00  0.0000E+00  0.0000E+00  0.0000E+00  0.0000E+00  0.0000E+00  0.0000E+00  0.0000E+00  0.0000E+00
    -31.500  0.0000E+00  0.0000E+00  0.0000E+00  0.0000E+00  0.0000E+00  0.0000E+00  0.0000E+00  0.0000E+00  0.0000E+00
    -31.234  0.0000E+00  0.0000E+00  0.0000E+00  0.0000E+00  0.0000E+00  0.0000E+00  0.0000E+00  0.0000E+00  0.0000E+00
    -30.968  0.0000E+00  0.0000E+00  0.0000E+00  0.0000E+00  0.0000E+00  0.0000E+00  0.0000E+00  0.0000E+00  0.0000E+00
    -30.701  0.0000E+00  0.0000E+00  0.0000E+00  0.0000E+00  0.0000E+00  0.0000E+00  0.0000E+00  0.0000E+00  0.0000E+00
    -30.435  0.0000E+00  0.0000E+00  0.0000E+00  0.0000E+00  0.0000E+00  0.0000E+00  0.0000E+00  0.0000E+00  0.0000E+00
    -30.169  0.0000E+00  0.0000E+00  0.0000E+00  0.0000E+00  0.0000E+00  0.0000E+00  0.0000E+00  0.0000E+00  0.0000E+00
    -29.903  0.0000E+00  0.0000E+00  0.0000E+00  0.0000E+00  0.0000E+00  0.0000E+00  0.0000E+00  0.0000E+00  0.0000E+00
    -29.636  0.0000E+00  0.0000E+00  0.0000E+00  0.0000E+00  0.0000E+00  0.0000E+00  0.0000E+00  0.0000E+00  0.0000E+00
    -29.370  0.0000E+00  0.0000E+00  0.0000E+00  0.0000E+00  0.0000E+00  0.0000E+00  0.0000E+00  0.0000E+00  0.0000E+00
    -29.104  0.0000E+00  0.0000E+00  0.0000E+00  0.0000E+00  0.0000E+00  0.0000E+00  0.0000E+00  0.0000E+00  0.0000E+00
    -28.837  0.0000E+00  0.0000E+00  0.0000E+00  0.0000E+00  0.0000E+00  0.0000E+00  0.0000E+00  0.0000E+00  0.0000E+00
    -28.571  0.0000E+00  0.0000E+00  0.0000E+00  0.0000E+00  0.0000E+00  0.0000E+00  0.0000E+00  0.0000E+00  0.0000E+00
    -28.305  0.0000E+00  0.0000E+00  0.0000E+00  0.0000E+00  0.0000E+00  0.0000E+00  0.0000E+00  0.0000E+00  0.0000E+00
    -28.038  0.0000E+00  0.0000E+00  0.0000E+00  0.0000E+00  0.0000E+00  0.0000E+00  0.0000E+00  0.0000E+00  0.0000E+00
    -27.772  0.0000E+00  0.0000E+00  0.0000E+00  0.0000E+00  0.0000E+00  0.0000E+00  0.0000E+00  0.0000E+00  0.0000E+00
    -27.506  0.0000E+00  0.0000E+00  0.0000E+00  0.0000E+00  0.0000E+00  0.0000E+00  0.0000E+00  0.0000E+00  0.0000E+00
    -27.239  0.0000E+00  0.0000E+00  0.0000E+00  0.0000E+00  0.0000E+00  0.0000E+00  0.0000E+00  0.0000E+00  0.0000E+00
    -26.973  0.0000E+00  0.0000E+00  0.0000E+00  0.0000E+00  0.0000E+00  0.0000E+00  0.0000E+00  0.0000E+00  0.0000E+00
    -26.707  0.0000E+00  0.0000E+00  0.0000E+00  0.0000E+00  0.0000E+00  0.0000E+00  0.0000E+00  0.0000E+00  0.0000E+00
    -26.440  0.0000E+00  0.0000E+00  0.0000E+00  0.0000E+00  0.0000E+00  0.0000E+00  0.0000E+00  0.0000E+00  0.0000E+00
    -26.174  0.0000E+00  0.0000E+00  0.0000E+00  0.0000E+00  0.0000E+00  0.0000E+00  0.0000E+00  0.0000E+00  0.0000E+00
    -25.908  0.0000E+00  0.0000E+00  0.0000E+00  0.0000E+00  0.0000E+00  0.0000E+00  0.0000E+00  0.0000E+00  0.0000E+00
    -25.641  0.0000E+00  0.0000E+00  0.0000E+00  0.0000E+00  0.0000E+00  0.0000E+00  0.0000E+00  0.0000E+00  0.0000E+00
    -25.375  0.0000E+00  0.0000E+00  0.0000E+00  0.0000E+00  0.0000E+00  0.0000E+00  0.0000E+00  0.0000E+00  0.0000E+00
    -25.109  0.0000E+00  0.0000E+00  0.0000E+00  0.0000E+00  0.0000E+00  0.0000E+00  0.0000E+00  0.0000E+00  0.0000E+00
    -24.842  0.0000E+00  0.0000E+00  0.0000E+00  0.0000E+00  0.0000E+00  0.0000E+00  0.0000E+00  0.0000E+00  0.0000E+00
    -24.576  0.0000E+00  0.0000E+00  0.0000E+00  0.0000E+00  0.0000E+00  0.0000E+00  0.0000E+00  0.0000E+00  0.0000E+00
    -24.310  0.0000E+00  0.0000E+00  0.0000E+00  0.0000E+00  0.0000E+00  0.0000E+00  0.0000E+00  0.0000E+00  0.0000E+00
    -24.043  0.0000E+00  0.0000E+00  0.0000E+00  0.0000E+00  0.0000E+00  0.0000E+00  0.0000E+00  0.0000E+00  0.0000E+00
    -23.777  0.0000E+00  0.0000E+00  0.0000E+00  0.0000E+00  0.0000E+00  0.0000E+00  0.0000E+00  0.0000E+00  0.0000E+00
    -23.511  0.0000E+00  0.0000E+00  0.0000E+00  0.0000E+00  0.0000E+00  0.0000E+00  0.0000E+00  0.0000E+00  0.0000E+00
    -23.244  0.0000E+00  0.0000E+00  0.0000E+00  0.0000E+00  0.0000E+00  0.0000E+00  0.0000E+00  0.0000E+00  0.0000E+00
    -22.978  0.0000E+00  0.0000E+00  0.0000E+00  0.0000E+00  0.0000E+00  0.0000E+00  0.0000E+00  0.0000E+00  0.0000E+00
    -22.712  0.0000E+00  0.0000E+00  0.0000E+00  0.0000E+00  0.0000E+00  0.0000E+00  0.0000E+00  0.0000E+00  0.0000E+00
    -22.445  0.0000E+00  0.0000E+00  0.0000E+00  0.0000E+00  0.0000E+00  0.0000E+00  0.0000E+00  0.0000E+00  0.0000E+00
    -22.179  0.0000E+00  0.0000E+00  0.0000E+00  0.0000E+00  0.0000E+00  0.0000E+00  0.0000E+00  0.0000E+00  0.0000E+00
    -21.913  0.0000E+00  0.0000E+00  0.0000E+00  0.0000E+00  0.0000E+00  0.0000E+00  0.0000E+00  0.0000E+00  0.0000E+00
    -21.646  0.0000E+00  0.0000E+00  0.0000E+00  0.0000E+00  0.0000E+00  0.0000E+00  0.0000E+00  0.0000E+00  0.0000E+00
    -21.380  0.0000E+00  0.0000E+00  0.0000E+00  0.0000E+00  0.0000E+00  0.0000E+00  0.0000E+00  0.0000E+00  0.0000E+00
    -21.114  0.0000E+00  0.0000E+00  0.0000E+00  0.0000E+00  0.0000E+00  0.0000E+00  0.0000E+00  0.0000E+00  0.0000E+00
    -20.847  0.0000E+00  0.0000E+00  0.0000E+00  0.0000E+00  0.0000E+00  0.0000E+00  0.0000E+00  0.0000E+00  0.0000E+00
    -20.581  0.0000E+00  0.0000E+00  0.0000E+00  0.0000E+00  0.0000E+00  0.0000E+00  0.0000E+00  0.0000E+00  0.0000E+00
    -20.315  0.0000E+00  0.0000E+00  0.0000E+00  0.0000E+00  0.0000E+00  0.0000E+00  0.0000E+00  0.0000E+00  0.0000E+00
    -20.048  0.0000E+00  0.0000E+00  0.0000E+00  0.0000E+00  0.0000E+00  0.0000E+00  0.0000E+00  0.0000E+00  0.0000E+00
    -19.782  0.0000E+00  0.0000E+00  0.0000E+00  0.0000E+00  0.0000E+00  0.0000E+00  0.0000E+00  0.0000E+00  0.0000E+00
    -19.516  0.0000E+00  0.0000E+00  0.0000E+00  0.0000E+00  0.0000E+00  0.0000E+00  0.0000E+00  0.0000E+00  0.0000E+00
    -19.249  0.0000E+00  0.0000E+00  0.0000E+00  0.0000E+00  0.0000E+00  0.0000E+00  0.0000E+00  0.0000E+00  0.0000E+00
    -18.983  0.0000E+00  0.0000E+00  0.0000E+00  0.0000E+00  0.0000E+00  0.0000E+00  0.0000E+00  0.0000E+00  0.0000E+00
    -18.717  0.0000E+00  0.0000E+00  0.0000E+00  0.0000E+00  0.0000E+00  0.0000E+00  0.0000E+00  0.0000E+00  0.0000E+00
    -18.450  0.0000E+00  0.0000E+00  0.0000E+00  0.0000E+00  0.0000E+00  0.0000E+00  0.0000E+00  0.0000E+00  0.0000E+00
    -18.184  0.0000E+00  0.0000E+00  0.0000E+00  0.0000E+00  0.0000E+00  0.0000E+00  0.0000E+00  0.0000E+00  0.0000E+00
    -17.918  0.0000E+00  0.0000E+00  0.0000E+00  0.0000E+00  0.0000E+00  0.0000E+00  0.0000E+00  0.0000E+00  0.0000E+00
    -17.651  0.0000E+00  0.0000E+00  0.0000E+00  0.0000E+00  0.0000E+00  0.0000E+00  0.0000E+00  0.0000E+00  0.0000E+00
    -17.385  0.0000E+00  0.0000E+00  0.0000E+00  0.0000E+00  0.0000E+00  0.0000E+00  0.0000E+00  0.0000E+00  0.0000E+00
    -17.119  0.0000E+00  0.0000E+00  0.0000E+00  0.0000E+00  0.0000E+00  0.0000E+00  0.0000E+00  0.0000E+00  0.0000E+00
    -16.852  0.0000E+00  0.0000E+00  0.0000E+00  0.0000E+00  0.0000E+00  0.0000E+00  0.0000E+00  0.0000E+00  0.0000E+00
    -16.586  0.0000E+00  0.0000E+00  0.0000E+00  0.0000E+00  0.0000E+00  0.0000E+00  0.0000E+00  0.0000E+00  0.0000E+00
    -16.320  0.0000E+00  0.0000E+00  0.0000E+00  0.0000E+00  0.0000E+00  0.0000E+00  0.0000E+00  0.0000E+00  0.0000E+00
    -16.053  0.0000E+00  0.0000E+00  0.0000E+00  0.0000E+00  0.0000E+00  0.0000E+00  0.0000E+00  0.0000E+00  0.0000E+00
    -15.787  0.0000E+00  0.0000E+00  0.0000E+00  0.0000E+00  0.0000E+00  0.0000E+00  0.0000E+00  0.0000E+00  0.0000E+00
    -15.521  0.0000E+00  0.0000E+00  0.0000E+00  0.0000E+00  0.0000E+00  0.0000E+00  0.0000E+00  0.0000E+00  0.0000E+00
    -15.254  0.0000E+00  0.0000E+00  0.0000E+00  0.0000E+00  0.0000E+00  0.0000E+00  0.0000E+00  0.0000E+00  0.0000E+00
    -14.988  0.0000E+00  0.0000E+00  0.0000E+00  0.0000E+00  0.0000E+00  0.0000E+00  0.0000E+00  0.0000E+00  0.0000E+00
    -14.722  0.0000E+00  0.0000E+00  0.0000E+00  0.0000E+00  0.0000E+00  0.0000E+00  0.0000E+00  0.0000E+00  0.0000E+00
    -14.455  0.0000E+00  0.0000E+00  0.0000E+00  0.0000E+00  0.0000E+00  0.0000E+00  0.0000E+00  0.0000E+00  0.0000E+00
    -14.189  0.0000E+00  0.0000E+00  0.0000E+00  0.0000E+00  0.0000E+00  0.0000E+00  0.0000E+00  0.0000E+00  0.0000E+00
    -13.923  0.0000E+00  0.0000E+00  0.0000E+00  0.0000E+00  0.0000E+00  0.0000E+00  0.0000E+00  0.0000E+00  0.0000E+00
    -13.656  0.0000E+00  0.0000E+00  0.0000E+00  0.0000E+00  0.0000E+00  0.0000E+00  0.0000E+00  0.0000E+00  0.0000E+00
    -13.390  0.0000E+00  0.0000E+00  0.0000E+00  0.0000E+00  0.0000E+00  0.0000E+00  0.0000E+00  0.0000E+00  0.0000E+00
    -13.124  0.0000E+00  0.0000E+00  0.0000E+00  0.0000E+00  0.0000E+00  0.0000E+00  0.0000E+00  0.0000E+00  0.0000E+00
    -12.857  0.0000E+00  0.0000E+00  0.0000E+00  0.0000E+00  0.0000E+00  0.0000E+00  0.0000E+00  0.0000E+00  0.0000E+00
    -12.591  0.0000E+00  0.0000E+00  0.0000E+00  0.0000E+00  0.0000E+00  0.0000E+00  0.0000E+00  0.0000E+00  0.0000E+00
    -12.325  0.0000E+00  0.0000E+00  0.0000E+00  0.0000E+00  0.0000E+00  0.0000E+00  0.0000E+00  0.0000E+00  0.0000E+00
    -12.058  0.0000E+00  0.0000E+00  0.0000E+00  0.0000E+00  0.0000E+00  0.0000E+00  0.0000E+00  0.0000E+00  0.0000E+00
    -11.792  0.0000E+00  0.0000E+00  0.0000E+00  0.0000E+00  0.0000E+00  0.0000E+00  0.0000E+00  0.0000E+00  0.0000E+00
    -11.526  0.0000E+00  0.0000E+00  0.0000E+00  0.0000E+00  0.0000E+00  0.0000E+00  0.0000E+00  0.0000E+00  0.0000E+00
    -11.259  0.0000E+00  0.0000E+00  0.0000E+00  0.0000E+00  0.0000E+00  0.0000E+00  0.0000E+00  0.0000E+00  0.0000E+00
    -10.993  0.0000E+00  0.0000E+00  0.0000E+00  0.0000E+00  0.0000E+00  0.0000E+00  0.0000E+00  0.0000E+00  0.0000E+00
    -10.727  0.0000E+00  0.0000E+00  0.0000E+00  0.0000E+00  0.0000E+00  0.0000E+00  0.0000E+00  0.0000E+00  0.0000E+00
    -10.460  0.0000E+00  0.0000E+00  0.0000E+00  0.0000E+00  0.0000E+00  0.0000E+00  0.0000E+00  0.0000E+00  0.0000E+00
    -10.194  0.0000E+00  0.0000E+00  0.0000E+00  0.0000E+00  0.0000E+00  0.0000E+00  0.0000E+00  0.0000E+00  0.0000E+00
     -9.928  0.0000E+00  0.0000E+00  0.0000E+00  0.0000E+00  0.0000E+00  0.0000E+00  0.0000E+00  0.0000E+00  0.0000E+00
     -9.662  0.0000E+00  0.0000E+00  0.0000E+00  0.0000E+00  0.0000E+00  0.0000E+00  0.0000E+00  0.0000E+00  0.0000E+00
     -9.395  0.0000E+00  0.0000E+00  0.0000E+00  0.0000E+00  0.0000E+00  0.0000E+00  0.0000E+00  0.0000E+00  0.0000E+00
     -9.129  0.0000E+00  0.0000E+00  0.0000E+00  0.0000E+00  0.0000E+00  0.0000E+00  0.0000E+00  0.0000E+00  0.0000E+00
     -8.863  0.0000E+00  0.0000E+00  0.0000E+00  0.0000E+00  0.0000E+00  0.0000E+00  0.0000E+00  0.0000E+00  0.0000E+00
     -8.596  0.0000E+00  0.0000E+00  0.0000E+00  0.0000E+00  0.0000E+00  0.0000E+00  0.0000E+00  0.0000E+00  0.0000E+00
     -8.330  0.0000E+00  0.0000E+00  0.0000E+00  0.0000E+00  0.0000E+00  0.0000E+00  0.0000E+00  0.0000E+00  0.0000E+00
     -8.064  0.0000E+00  0.0000E+00  0.0000E+00  0.0000E+00  0.0000E+00  0.0000E+00  0.0000E+00  0.0000E+00  0.0000E+00
     -7.797  0.0000E+00  0.0000E+00  0.0000E+00  0.0000E+00  0.0000E+00  0.0000E+00  0.0000E+00  0.0000E+00  0.0000E+00
     -7.531  0.0000E+00  0.0000E+00  0.0000E+00  0.0000E+00  0.0000E+00  0.0000E+00  0.0000E+00  0.0000E+00  0.0000E+00
     -7.265  0.0000E+00  0.0000E+00  0.0000E+00  0.0000E+00  0.0000E+00  0.0000E+00  0.0000E+00  0.0000E+00  0.0000E+00
     -6.998  0.0000E+00  0.0000E+00  0.0000E+00  0.0000E+00  0.0000E+00  0.0000E+00  0.0000E+00  0.0000E+00  0.0000E+00
     -6.732  0.0000E+00  0.0000E+00  0.0000E+00  0.0000E+00  0.0000E+00  0.0000E+00  0.0000E+00  0.0000E+00  0.0000E+00
     -6.466  0.0000E+00  0.0000E+00  0.0000E+00  0.0000E+00  0.0000E+00  0.0000E+00  0.0000E+00  0.0000E+00  0.0000E+00
     -6.199  0.0000E+00  0.0000E+00  0.0000E+00  0.0000E+00  0.0000E+00  0.0000E+00  0.0000E+00  0.0000E+00  0.0000E+00
     -5.933  0.0000E+00  0.0000E+00  0.0000E+00  0.0000E+00  0.0000E+00  0.0000E+00  0.0000E+00  0.0000E+00  0.0000E+00
     -5.667  0.0000E+00  0.0000E+00  0.0000E+00  0.0000E+00  0.0000E+00  0.0000E+00  0.0000E+00  0.0000E+00  0.0000E+00
     -5.400  0.0000E+00  0.0000E+00  0.0000E+00  0.0000E+00  0.0000E+00  0.0000E+00  0.0000E+00  0.0000E+00  0.0000E+00
     -5.134  0.0000E+00  0.0000E+00  0.0000E+00  0.0000E+00  0.0000E+00  0.0000E+00  0.0000E+00  0.0000E+00  0.0000E+00
     -4.868  0.0000E+00  0.0000E+00  0.0000E+00  0.0000E+00  0.0000E+00  0.0000E+00  0.0000E+00  0.0000E+00  0.0000E+00