    2    2  100    1
  0.1710351E+02  0.2835561E-09  0.2835561E-09  0.4912544E-09  0.5000000E-15
  1.000000000000000E-004
  CAR 
 Pt-hcc                                  
     32     70     24
 
  0.0000000E+00  0.0000000E+00  0.0000000E+00  0.1250000E-02
      1        -42.592570   1.000000
      2        -42.504033   1.000000
      3        -42.504032   1.000000
      4        -42.473848   1.000000
      5        -42.473847   1.000000
      6        -42.350769   1.000000
      7          0.811712   1.000000
      8          3.384627   1.000000
      9          6.264519   1.000000
     10          6.697811   1.000000
     11          6.697812   1.000000
     12          7.016497   1.000000
     13          7.016498   1.000000
     14          8.129116   1.000000
     15          8.129117   1.000000
     16          9.350427   1.000000
     17          9.516377   1.000000
     18          9.516377   1.000000
     19         13.912604   0.000000
     20         24.872929   0.000000
     21         25.374334   0.000000
     22         26.896695   0.000000
     23         29.852022   0.000000
     24         29.852022   0.000000
 
  0.1000000E+00  0.0000000E+00  0.0000000E+00  0.7500000E-02
      1        -42.584256   1.000000
      2        -42.530816   1.000000
      3        -42.511869   1.000000
      4        -42.501019   1.000000
      5        -42.479548   1.000000
      6        -42.352499   1.000000
      7          1.146056   1.000000
      8          3.684187   1.000000
      9          6.203986   1.000000
     10          6.711951   1.000000
     11          6.889945   1.000000
     12          6.941786   1.000000
     13          7.248091   1.000000
     14          7.666258   1.000000
     15          7.982953   1.000000
     16          8.161615   1.000000
     17          9.568098   0.999730
     18         11.260401   0.000000
     19         13.887691   0.000000
     20         25.148581   0.000000
     21         25.860525   0.000000
     22         26.948997   0.000000
     23         28.403658   0.000000
     24         28.521841   0.000000
 
  0.2000000E+00  0.0000000E+00  0.0000000E+00  0.7500000E-02
      1        -42.600270   1.000000
      2        -42.571776   1.000000
      3        -42.560556   1.000000
      4        -42.531850   1.000000
      5        -42.494651   1.000000
      6        -42.359159   1.000000
      7          2.064971   1.000000
      8          4.352644   1.000000
      9          6.002839   1.000000
     10          6.461821   1.000000
     11          6.463610   1.000000
     12          7.260461   1.000000
     13          7.630970   1.000000
     14          7.655522   1.000000
     15          7.689874   1.000000
     16          7.896410   1.000000
     17          9.651676   0.863484
     18         13.278038   0.000000
     19         13.856212   0.000000
     20         23.081049   0.000000
     21         26.094783   0.000000
     22         26.446147   0.000000
     23         27.297392   0.000000
     24         27.559457   0.000000
 
  0.3000000E+00 -0.2775558E-16  0.0000000E+00  0.7500000E-02
      1        -42.686263   1.000000
      2        -42.657132   1.000000
      3        -42.555976   1.000000
      4        -42.527527   1.000000
      5        -42.513257   1.000000
      6        -42.371536   1.000000
      7          3.217784   1.000000
      8          4.499983   1.000000
      9          5.520118   1.000000
     10          6.237382   1.000000
     11          6.545845   1.000000
     12          7.242634   1.000000
     13          7.315128   1.000000
     14          8.271843   1.000000
     15          8.613495   1.000000
     16          8.809165   1.000000
     17          9.697282   0.423160
     18         14.033953   0.000000
     19         15.358027   0.000000
     20         19.402058   0.000000
     21         23.864629   0.000000
     22         24.832500   0.000000
     23         25.562786   0.000000
     24         27.162054   0.000000
 
  0.4000000E+00 -0.8326673E-16  0.0000000E+00  0.7500000E-02
      1        -42.755652   1.000000
      2        -42.724517   1.000000
      3        -42.575175   1.000000
      4        -42.528586   1.000000
      5        -42.493845   1.000000
      6        -42.388438   1.000000
      7          3.896342   1.000000
      8          4.222710   1.000000
      9          4.940316   1.000000
     10          6.696998   1.000000
     11          6.914026   1.000000
     12          7.071428   1.000000
     13          7.279948   1.000000
     14          9.546564   0.999976
     15          9.698954   0.404733
     16          9.707732   0.312277
     17          9.939595   0.000000
     18         14.918430   0.000000
     19         15.861625   0.000000
     20         17.250138   0.000000
     21         21.303537   0.000000
     22         22.117216   0.000000
     23         23.355951   0.000000
     24         25.937426   0.000000
 
  0.5000000E+00  0.0000000E+00  0.0000000E+00  0.3750000E-02
      1        -42.782222   1.000000
      2        -42.750359   1.000000
      3        -42.581856   1.000000
      4        -42.534373   1.000000
      5        -42.476474   1.000000
      6        -42.398549   1.000000
      7          4.048389   1.000000
      8          4.064194   1.000000
      9          4.744798   1.000000
     10          6.794603   1.000000
     11          6.984023   1.000000
     12          7.153759   1.000000
     13          7.486468   1.000000
     14          9.707705   0.312553
     15          9.934163   0.000000
     16         10.109020   0.000000
     17         11.830703   0.000000
     18         13.163948   0.000000
     19         16.594193   0.000000
     20         18.195053   0.000000
     21         18.496930   0.000000
     22         21.417265   0.000000
     23         22.600106   0.000000
     24         25.440425   0.000000
 
  0.1000000E+00  0.1000000E+00  0.0000000E+00  0.7500000E-02
      1        -42.574027   1.000000
      2        -42.568136   1.000000
      3        -42.554714   1.000000
      4        -42.521573   1.000000
      5        -42.493235   1.000000
      6        -42.356851   1.000000
      7          1.779650   1.000000
      8          4.209427   1.000000
      9          5.969455   1.000000
     10          6.633165   1.000000
     11          6.823291   1.000000
     12          6.910422   1.000000
     13          7.456895   1.000000
     14          7.485890   1.000000
     15          7.765054   1.000000
     16          8.051921   1.000000
     17          9.586340   0.998380
     18         12.741020   0.000000
     19         13.861324   0.000000
     20         24.692511   0.000000
     21         24.990333   0.000000
     22         26.701353   0.000000
     23         27.604212   0.000000
     24         28.115744   0.000000
 
  0.2000000E+00  0.1000000E+00  0.0000000E+00  0.1500000E-01
      1        -42.646181   1.000000
      2        -42.627237   1.000000
      3        -42.549475   1.000000
      4        -42.539679   1.000000
      5        -42.515766   1.000000
      6        -42.366615   1.000000
      7          2.879089   1.000000
      8          4.788435   1.000000
      9          5.810349   1.000000
     10          5.885335   1.000000
     11          6.394210   1.000000
     12          7.057926   1.000000
     13          7.446640   1.000000
     14          7.730733   1.000000
     15          8.384818   1.000000
     16          8.731983   1.000000
     17          9.586869   0.998300
     18         13.950677   0.000000
     19         14.686355   0.000000
     20         21.264589   0.000000
     21         23.190466   0.000000
     22         25.791424   0.000000
     23         27.497594   0.000000
     24         27.682460   0.000000
 
  0.3000000E+00  0.1000000E+00  0.0000000E+00  0.1500000E-01
      1        -42.721141   1.000000
      2        -42.695062   1.000000
      3        -42.578030   1.000000
      4        -42.536918   1.000000
      5        -42.505618   1.000000
      6        -42.381894   1.000000
      7          3.909591   1.000000
      8          4.595835   1.000000
      9          5.198318   1.000000
     10          6.248343   1.000000
     11          6.791896   1.000000
     12          6.798887   1.000000
     13          7.303010   1.000000
     14          8.408939   1.000000
     15          9.326175   1.000000
     16          9.575927   0.999399
     17          9.985954   0.000000
     18         14.574960   0.000000
     19         16.705491   0.000000
     20         17.570535   0.000000
     21         21.199753   0.000000
     22         23.969272   0.000000
     23         24.265075   0.000000
     24         26.277671   0.000000
 
  0.4000000E+00  0.1000000E+00  0.0000000E+00  0.1500000E-01
      1        -42.767523   1.000000
      2        -42.736616   1.000000
      3        -42.595997   1.000000
      4        -42.549963   1.000000
      5        -42.476984   1.000000
      6        -42.398349   1.000000
      7          4.259028   1.000000
      8          4.349353   1.000000
      9          4.843275   1.000000
     10          6.751082   1.000000
     11          6.950362   1.000000
     12          6.956726   1.000000
     13          7.244030   1.000000
     14          9.478664   1.000000
     15          9.561273   0.999870
     16          9.800271   0.000946
     17         11.553237   0.000000
     18         14.317204   0.000000
     19         16.217391   0.000000
     20         18.331176   0.000000
     21         18.990512   0.000000
     22         21.299375   0.000000
     23         23.021006   0.000000
     24         25.338773   0.000000
 
  0.2000000E+00  0.2000000E+00  0.0000000E+00  0.7500000E-02
      1        -42.688303   1.000000
      2        -42.688251   1.000000
      3        -42.582345   1.000000
      4        -42.552361   1.000000
      5        -42.509805   1.000000
      6        -42.379581   1.000000
      7          4.021976   1.000000
      8          5.341948   1.000000
      9          5.378306   1.000000
     10          5.413890   1.000000
     11          6.580555   1.000000
     12          6.632530   1.000000
     13          7.473802   1.000000
     14          7.764223   1.000000
     15          9.315160   1.000000
     16          9.433829   1.000000
     17         10.057723   0.000000
     18         14.524281   0.000000
     19         16.565216   0.000000
     20         19.018894   0.000000
     21         19.946058   0.000000
     22         25.013369   0.000000
     23         25.635247   0.000000
     24         26.315008   0.000000
 
  0.3000000E+00  0.2000000E+00  0.0000000E+00  0.1500000E-01
      1        -42.734045   1.000000
      2        -42.713242   1.000000
      3        -42.619819   1.000000
      4        -42.584616   1.000000
      5        -42.477790   1.000000
      6        -42.397732   1.000000
      7          4.793897   1.000000
      8          5.040008   1.000000
      9          5.040064   1.000000
     10          6.055259   1.000000
     11          6.504936   1.000000
     12          7.050168   1.000000
     13          7.071434   1.000000
     14          8.455577   1.000000
     15          9.316587   1.000000
     16          9.693478   0.465641
     17         11.567575   0.000000
     18         15.481586   0.000000
     19         16.481811   0.000000
     20         18.130072   0.000000
     21         18.544609   0.000000
     22         22.664968   0.000000
     23         24.015502   0.000000
     24         24.927538   0.000000
 
  0.4000000E+00  0.2000000E+00  0.0000000E+00  0.7500000E-02
      1        -42.750441   1.000000
      2        -42.719307   1.000000
      3        -42.638044   1.000000
      4        -42.596400   1.000000
      5        -42.459062   1.000000
      6        -42.410245   1.000000
      7          4.906166   1.000000
      8          4.915389   1.000000
      9          4.922163   1.000000
     10          6.574075   1.000000
     11          6.624214   1.000000
     12          6.722395   1.000000
     13          7.309442   1.000000
     14          9.118440   1.000000
     15          9.273773   1.000000
     16          9.525240   0.999999
     17         13.129499   0.000000
     18         13.528913   0.000000
     19         16.856237   0.000000
     20         18.280722   0.000000
     21         19.725697   0.000000
     22         20.554556   0.000000
     23         23.012801   0.000000
     24         24.596834   0.000000
 
  0.3000000E+00  0.3000000E+00  0.0000000E+00  0.7500000E-02
      1        -42.724286   1.000000
      2        -42.700280   1.000000
      3        -42.665668   1.000000
      4        -42.634904   1.000000
      5        -42.448603   1.000000
      6        -42.418243   1.000000
      7          5.007764   1.000000
      8          5.317597   1.000000
      9          5.556238   1.000000
     10          5.955723   1.000000
     11          6.464149   1.000000
     12          6.700882   1.000000
     13          7.388177   1.000000
     14          8.769008   1.000000
     15          9.131613   1.000000
     16          9.388629   1.000000
     17         13.087475   0.000000
     18         14.348830   0.000000
     19         15.790143   0.000000
     20         18.996206   0.000000
     21         20.565352   0.000000
     22         21.649472   0.000000
     23         22.378197   0.000000
     24         22.888161   0.000000
 
  0.0000000E+00  0.0000000E+00  0.1250000E+00  0.2500000E-02
      1        -42.583773   1.000000
      2        -42.503159   1.000000
      3        -42.503158   1.000000
      4        -42.474802   1.000000
      5        -42.474801   1.000000
      6        -42.359668   1.000000
      7          0.935821   1.000000
      8          3.360328   1.000000
      9          6.236023   1.000000
     10          6.680337   1.000000
     11          6.680338   1.000000
     12          6.982923   1.000000
     13          6.982924   1.000000
     14          8.215130   1.000000
     15          8.215131   1.000000
     16          8.726330   1.000000
     17          9.491016   1.000000
     18          9.491016   1.000000
     19         14.785385   0.000000
     20         24.415109   0.000000
     21         25.802461   0.000000
     22         26.632206   0.000000
     23         29.510888   0.000000
     24         29.510888   0.000000
 
  0.1000000E+00  0.0000000E+00  0.1250000E+00  0.1500000E-01
      1        -42.576773   1.000000
      2        -42.528541   1.000000
      3        -42.510796   1.000000
      4        -42.502483   1.000000
      5        -42.480603   1.000000
      6        -42.360917   1.000000
      7          1.267972   1.000000
      8          3.666015   1.000000
      9          6.207085   1.000000
     10          6.636953   1.000000
     11          6.803395   1.000000
     12          6.916638   1.000000
     13          7.210834   1.000000
     14          7.635481   1.000000
     15          8.084234   1.000000
     16          8.133108   1.000000
     17          9.533767   0.999995
     18         10.692638   0.000000
     19         14.890097   0.000000
     20         24.807654   0.000000
     21         26.118186   0.000000
     22         26.830926   0.000000
     23         27.992343   0.000000
     24         28.387726   0.000000
 
  0.2000000E+00  0.0000000E+00  0.1250000E+00  0.1500000E-01
      1        -42.602720   1.000000
      2        -42.574162   1.000000
      3        -42.549099   1.000000
      4        -42.530571   1.000000
      5        -42.496122   1.000000
      6        -42.366200   1.000000
      7          2.174045   1.000000
      8          4.356423   1.000000
      9          6.031105   1.000000
     10          6.218416   1.000000
     11          6.480962   1.000000
     12          7.169615   1.000000
     13          7.490764   1.000000
     14          7.791496   1.000000
     15          7.864642   1.000000
     16          7.943414   1.000000
     17          9.599170   0.995077
     18         12.063866   0.000000
     19         15.353276   0.000000
     20         23.184926   0.000000
     21         26.170257   0.000000
     22         26.248386   0.000000
     23         26.789883   0.000000
     24         27.876467   0.000000
 
  0.3000000E+00 -0.2775558E-16  0.1250000E+00  0.1500000E-01
      1        -42.687119   1.000000
      2        -42.659248   1.000000
      3        -42.554319   1.000000
      4        -42.519420   1.000000
      5        -42.514892   1.000000
      6        -42.376303   1.000000
      7          3.273946   1.000000
      8          4.523026   1.000000
      9          5.496468   1.000000
     10          6.095584   1.000000
     11          6.570939   1.000000
     12          7.332560   1.000000
     13          7.369231   1.000000
     14          8.318815   1.000000
     15          8.632942   1.000000
     16          8.767630   1.000000
     17          9.636551   0.936234
     18         13.061345   0.000000
     19         16.386470   0.000000
     20         19.652190   0.000000
     21         24.083346   0.000000
     22         24.218581   0.000000
     23         25.723744   0.000000
     24         27.537641   0.000000
 
  0.4000000E+00 -0.8326673E-16  0.1250000E+00  0.1500000E-01
      1        -42.756116   1.000000
      2        -42.727440   1.000000
      3        -42.573121   1.000000
      4        -42.530220   1.000000
      5        -42.487646   1.000000
      6        -42.390457   1.000000
      7          3.845244   1.000000
      8          4.233590   1.000000
      9          5.068815   1.000000
     10          6.143004   1.000000
     11          7.090912   1.000000
     12          7.146469   1.000000
     13          7.783460   1.000000
     14          9.482857   1.000000
     15          9.560964   0.999875
     16          9.785665   0.003533
     17          9.861380   0.000001
     18         14.124394   0.000000
     19         15.899651   0.000000
     20         18.025118   0.000000
     21         21.051145   0.000000
     22         22.366198   0.000000
     23         23.663553   0.000000
     24         26.158073   0.000000
 
  0.5000000E+00  0.0000000E+00  0.1250000E+00  0.7500000E-02
      1        -42.782592   1.000000
      2        -42.753172   1.000000
      3        -42.580398   1.000000
      4        -42.536049   1.000000
      5        -42.472043   1.000000
      6        -42.399772   1.000000
      7          3.937670   1.000000
      8          4.073489   1.000000
      9          4.932421   1.000000
     10          6.203279   1.000000
     11          7.063567   1.000000
     12          7.223589   1.000000
     13          8.197215   1.000000
     14          9.555747   0.999930
     15          9.952412   0.000000
     16         10.103298   0.000000
     17         11.638400   0.000000
     18         13.078337   0.000000
     19         16.426582   0.000000
     20         17.055607   0.000000
     21         19.882819   0.000000
     22         21.677421   0.000000
     23         22.747422   0.000000
     24         25.701675   0.000000
 
  0.1000000E+00  0.1000000E+00  0.1250000E+00  0.1500000E-01
      1        -42.580546   1.000000
      2        -42.555793   1.000000
      3        -42.552895   1.000000
      4        -42.521146   1.000000
      5        -42.494371   1.000000
      6        -42.364245   1.000000
      7          1.894734   1.000000
      8          4.205772   1.000000
      9          5.996921   1.000000
     10          6.403151   1.000000
     11          6.714852   1.000000
     12          6.930200   1.000000
     13          7.398222   1.000000
     14          7.595097   1.000000
     15          7.849118   1.000000
     16          8.109088   1.000000
     17          9.541572   0.999987
     18         11.747000   0.000000
     19         15.181041   0.000000
     20         24.697904   0.000000
     21         25.073611   0.000000
     22         26.469232   0.000000
     23         27.141901   0.000000
     24         28.376344   0.000000
 
  0.2000000E+00  0.1000000E+00  0.1250000E+00  0.3000000E-01
      1        -42.647687   1.000000
      2        -42.628918   1.000000
      3        -42.548719   1.000000
      4        -42.530715   1.000000
      5        -42.516741   1.000000
      6        -42.372090   1.000000
      7          2.966972   1.000000
      8          4.816204   1.000000
      9          5.717486   1.000000
     10          5.869986   1.000000
     11          6.375175   1.000000
     12          6.962655   1.000000
     13          7.584648   1.000000
     14          7.714656   1.000000
     15          8.482695   1.000000
     16          8.686759   1.000000
     17          9.542684   0.999985
     18         12.795677   0.000000
     19         16.021470   0.000000
     20         21.433882   0.000000
     21         23.312657   0.000000
     22         25.587399   0.000000
     23         26.753741   0.000000
     24         28.383301   0.000000
 
  0.3000000E+00  0.1000000E+00  0.1250000E+00  0.3000000E-01
      1        -42.721762   1.000000
      2        -42.697271   1.000000
      3        -42.576964   1.000000
      4        -42.538757   1.000000
      5        -42.498244   1.000000
      6        -42.384884   1.000000
      7          3.906212   1.000000
      8          4.626023   1.000000
      9          5.245956   1.000000
     10          6.009827   1.000000
     11          6.759600   1.000000
     12          7.102343   1.000000
     13          7.315494   1.000000
     14          8.423699   1.000000
     15          9.366815   1.000000
     16          9.416627   1.000000
     17         10.034540   0.000000
     18         13.844070   0.000000
     19         16.915126   0.000000
     20         18.319225   0.000000
     21         21.272410   0.000000
     22         23.331671   0.000000
     23         24.786946   0.000000
     24         26.386364   0.000000
 
  0.4000000E+00  0.1000000E+00  0.1250000E+00  0.3000000E-01
      1        -42.767912   1.000000
      2        -42.739430   1.000000
      3        -42.594430   1.000000
      4        -42.551848   1.000000
      5        -42.472168   1.000000
      6        -42.399309   1.000000
      7          4.143789   1.000000
      8          4.358988   1.000000
      9          5.056406   1.000000
     10          6.148911   1.000000
     11          6.838880   1.000000
     12          7.332454   1.000000
     13          7.716493   1.000000
     14          9.382013   1.000000
     15          9.483304   1.000000
     16          9.836457   0.000018
     17         11.518495   0.000000
     18         14.183803   0.000000
     19         15.810728   0.000000
     20         18.159203   0.000000
     21         19.539063   0.000000
     22         21.551775   0.000000
     23         23.261954   0.000000
     24         25.333417   0.000000
 
  0.2000000E+00  0.2000000E+00  0.1250000E+00  0.1500000E-01
      1        -42.690047   1.000000
      2        -42.688896   1.000000
      3        -42.582121   1.000000
      4        -42.554540   1.000000
      5        -42.501928   1.000000
      6        -42.383199   1.000000
      7          4.060288   1.000000
      8          5.223670   1.000000
      9          5.431676   1.000000
     10          5.493839   1.000000
     11          6.592123   1.000000
     12          6.612319   1.000000
     13          7.368262   1.000000
     14          7.900520   1.000000
     15          9.252070   1.000000
     16          9.410341   1.000000
     17         10.118154   0.000000
     18         13.811763   0.000000
     19         17.157472   0.000000
     20         19.422986   0.000000
     21         20.091747   0.000000
     22         24.741809   0.000000
     23         24.810537   0.000000
     24         26.942546   0.000000
 
  0.3000000E+00  0.2000000E+00  0.1250000E+00  0.3000000E-01
      1        -42.734280   1.000000
      2        -42.715168   1.000000
      3        -42.619558   1.000000
      4        -42.586578   1.000000
      5        -42.472049   1.000000
      6        -42.398776   1.000000
      7          4.678580   1.000000
      8          5.054785   1.000000
      9          5.206014   1.000000
     10          5.886361   1.000000
     11          6.621127   1.000000
     12          6.956229   1.000000
     13          7.198634   1.000000
     14          8.510360   1.000000
     15          9.144525   1.000000
     16          9.780120   0.005593
     17         11.607452   0.000000
     18         15.465623   0.000000
     19         15.884870   0.000000
     20         18.184570   0.000000
     21         19.341426   0.000000
     22         22.179904   0.000000
     23         24.022263   0.000000
     24         24.777394   0.000000
 
  0.4000000E+00  0.2000000E+00  0.1250000E+00  0.1500000E-01
      1        -42.750695   1.000000
      2        -42.722037   1.000000
      3        -42.637550   1.000000
      4        -42.598723   1.000000
      5        -42.455021   1.000000
      6        -42.410300   1.000000
      7          4.655555   1.000000
      8          4.947438   1.000000
      9          5.286466   1.000000
     10          6.084845   1.000000
     11          6.500227   1.000000
     12          7.131252   1.000000
     13          7.458919   1.000000
     14          9.095319   1.000000
     15          9.140321   1.000000
     16          9.589628   0.997822
     17         13.212974   0.000000
     18         13.566136   0.000000
     19         16.864334   0.000000
     20         17.953785   0.000000
     21         18.925661   0.000000
     22         21.692678   0.000000
     23         23.227949   0.000000
     24         23.697124   0.000000
 
  0.3000000E+00  0.3000000E+00  0.1250000E+00  0.1500000E-01
      1        -42.723477   1.000000
      2        -42.702843   1.000000
      3        -42.667023   1.000000
      4        -42.637609   1.000000
      5        -42.445632   1.000000
      6        -42.417744   1.000000
      7          5.034027   1.000000
      8          5.300998   1.000000
      9          5.591905   1.000000
     10          5.859884   1.000000
     11          6.570282   1.000000
     12          6.609566   1.000000
     13          7.396760   1.000000
     14          8.849939   1.000000
     15          8.950985   1.000000
     16          9.468860   1.000000
     17         13.176738   0.000000
     18         14.485803   0.000000
     19         16.012029   0.000000
     20         18.160143   0.000000
     21         20.667035   0.000000
     22         20.839541   0.000000
     23         22.559730   0.000000
     24         23.889905   0.000000
 
  0.0000000E+00  0.0000000E+00  0.2500000E+00  0.2500000E-02
      1        -42.557914   1.000000
      2        -42.500015   1.000000
      3        -42.500014   1.000000
      4        -42.478392   1.000000
      5        -42.478391   1.000000
      6        -42.386723   1.000000
      7          1.293836   1.000000
      8          3.251330   1.000000
      9          6.170921   1.000000
     10          6.652691   1.000000
     11          6.652691   1.000000
     12          6.896171   1.000000
     13          6.896171   1.000000
     14          7.618169   1.000000
     15          8.436490   1.000000
     16          8.436491   1.000000
     17          9.406398   1.000000
     18          9.406398   1.000000
     19         16.659166   0.000000
     20         23.819584   0.000000
     21         25.920539   0.000000
     22         26.060660   0.000000
     23         29.142272   0.000000
     24         29.142273   0.000000
 
  0.1000000E+00  0.0000000E+00  0.2500000E+00  0.1500000E-01
      1        -42.556509   1.000000
      2        -42.520313   1.000000
      3        -42.507256   1.000000
      4        -42.506929   1.000000
      5        -42.484171   1.000000
      6        -42.385517   1.000000
      7          1.620377   1.000000
      8          3.571030   1.000000
      9          6.196321   1.000000
     10          6.502701   1.000000
     11          6.578487   1.000000
     12          6.877076   1.000000
     13          7.119235   1.000000
     14          7.259025   1.000000
     15          8.334377   1.000000
     16          8.339915   1.000000
     17          9.425158   1.000000
     18          9.990100   0.000000
     19         16.824946   0.000000
     20         24.237586   0.000000
     21         26.140571   0.000000
     22         26.375750   0.000000
     23         27.687270   0.000000
     24         28.444613   0.000000
 
  0.2000000E+00  0.0000000E+00  0.2500000E+00  0.1500000E-01
      1        -42.604825   1.000000
      2        -42.579865   1.000000
      3        -42.526461   1.000000
      4        -42.522331   1.000000
      5        -42.500086   1.000000
      6        -42.385557   1.000000
      7          2.490402   1.000000
      8          4.314211   1.000000
      9          5.882491   1.000000
     10          6.125136   1.000000
     11          6.279497   1.000000
     12          6.993334   1.000000
     13          7.417629   1.000000
     14          7.726286   1.000000
     15          8.212914   1.000000
     16          8.242646   1.000000
     17          9.445101   1.000000
     18         10.913052   0.000000
     19         17.318052   0.000000
     20         23.490711   0.000000
     21         25.392554   0.000000
     22         26.063939   0.000000
     23         26.707856   0.000000
     24         27.924223   0.000000
 
  0.3000000E+00 -0.2775558E-16  0.2500000E+00  0.1500000E-01
      1        -42.688047   1.000000
      2        -42.665596   1.000000
      3        -42.549491   1.000000
      4        -42.519460   1.000000
      5        -42.497764   1.000000
      6        -42.389772   1.000000
      7          3.440691   1.000000