 vasp.6.3.2 27Jun22 (build Aug 12 2022 00:53:59) complex                        
  
 executed on               tv2STD date 2024.12.03  02:20:05
 running   24 mpi-ranks, with    1 threads/rank
 distrk:  each k-point on   24 cores,    1 groups
 distr:  one band on NCORE=   1 cores,   24 groups


--------------------------------------------------------------------------------------------------------


 INCAR:
   SYSTEM = Pt-hcc
   NWRITE = 2    write-flag
   ISTART = 0    job   : 0-new, 1-cont, 2-samecut
   ICHARG = 2    charge: 0-wave, 1-file, 2-atom, >10-const
   INIWAV = 1    electr: 0-lowe 1-rand  2-diag
   ENCUT = 450.0     energy cutoff in eV
   PREC = Accurate      normal | accurate
   ADDGRID = .FALSE.  (use fine grid)
   NELM = 100     number of ELM steps
   EDIFF = 1E-06    energy stopping-criterion for ELM
   LREAL = .FALSE.      real-space projection (.FALSE., .TRUE., On, Auto)
   ALGO = Normal     Normal, Fast, Very_Fast
   LWAVE = .TRUE.
   LCHARG = .TRUE.
   NSW = 100       max number of geometry steps
   IBRION = 2     ionic relax: 0-MD, 1-quasi-Newton, 2-CG, 3-Damped MD
   EDIFFG = -0.02  force (eV/A) stopping-criterion for geometry steps
   ISIF = 2     (1:force\=y stress\=trace only ions\=y shape\=n volume\=n)
   ISYM = 1     (1-use symmetry, 0-no symmetry)
   ISMEAR = 0     (-1-Fermi, 1-Methfessel/Paxton)
   SIGMA = 0.05   broadening in eV
   LORBIT = 11

 POTCAR:    PAW_PBE Pt_pv 12Dec2005               
 POTCAR:    PAW_PBE Pt_pv 12Dec2005               
   SHA256 =  e5abf7e8cd8db70d0153315afc5ad66b6e3eeee29cc2d5b91b16730957c1d208 Pt_pv/POTCAR          
   COPYR  = (c) Copyright 12Dec2005 Georg Kresse                                                    
   COPYR  = This file is part of the software VASP. Any use, copying, and all other rights are regul
   COPYR  = If you do not have a valid VASP license, you may not use, copy or distribute this file. 
   VRHFIN =Pt: 5ps1d9                                                                               
   LEXCH  = PE                                                                                      
   EATOM  =  2428.2504 eV,  178.4714 Ry                                                             
                                                                                                    
   TITEL  = PAW_PBE Pt_pv 12Dec2005                                                                 
   LULTRA =        F    use ultrasoft PP ?                                                          
   IUNSCR =        1    unscreen: 0-lin 1-nonlin 2-no                                               
   RPACOR =    2.000    partial core radius                                                         
   POMASS =  195.080; ZVAL   =   16.000    mass and valenz                                          
   RCORE  =    2.200    outmost cutoff radius                                                       
   RWIGS  =    2.200; RWIGS  =    1.164    wigner-seitz radius (au A)                               
   ENMAX  =  294.607; ENMIN  =  220.955 eV                                                          
   ICORE  =        3    local potential                                                             
   LCOR   =        T    correct aug charges                                                         
   LPAW   =        T    paw PP                                                                      
   EAUG   =  527.014                                                                                
   DEXC   =    0.000                                                                                
   RMAX   =    2.247    core radius for proj-oper                                                   
   RAUG   =    1.300    factor for augmentation sphere                                              
   RDEP   =    2.279    radius for radial grids                                                     
   RDEPT  =    1.878    core radius for aug-charge                                                  
                                                                                                    
   Atomic configuration                                                                             
   16 entries                                                                                       
     n  l   j            E        occ.                                                              
     1  0  0.50    -78401.1885   2.0000                                                             
     2  0  0.50    -13770.7750   2.0000                                                             
     2  1  1.50    -11931.0468   6.0000                                                             
     3  0  0.50     -3234.7234   2.0000                                                             
     3  1  1.50     -2699.2216   6.0000                                                             
     3  2  2.50     -2119.5714  10.0000                                                             
     4  0  0.50      -695.1528   2.0000                                                             
     4  1  1.50      -519.6034   6.0000                                                             
     4  2  2.50      -306.6786  10.0000                                                             
     4  3  3.50       -70.1041  14.0000                                                             
     5  0  0.50      -101.7747   2.0000                                                             
     5  1  1.50       -55.9873   6.0000                                                             
     6  1  1.50        -6.8029   0.0000                                                             
     5  2  2.50        -6.1423   9.0000                                                             
     6  0  0.50        -5.6573   1.0000                                                             
     5  3  2.50        -1.3606   0.0000                                                             
   Description                                                                                      
     l       E           TYP  RCUT    TYP  RCUT                                                     
     1    -55.9873477     23  2.000                                                                 
     1     27.2116520     23  2.000                                                                 
     2     -6.1423404     23  2.200                                                                 
     2     -4.6754623     23  2.200                                                                 
     0     -5.6573207     23  2.200                                                                 
     0     47.6203910     23  2.200                                                                 
     3      6.8029130     23  2.200                                                                 
  local pseudopotential read in
  partial core-charges read in
  partial kinetic energy density read in
  atomic valenz-charges read in
  non local Contribution for L=           1  read in
    real space projection operators read in
  non local Contribution for L=           1  read in
    real space projection operators read in
  non local Contribution for L=           2  read in
    real space projection operators read in
  non local Contribution for L=           2  read in
    real space projection operators read in
  non local Contribution for L=           0  read in
    real space projection operators read in
  non local Contribution for L=           0  read in
    real space projection operators read in
    PAW grid and wavefunctions read in
 
   number of l-projection  operators is LMAX  =           6
   number of lm-projection operators is LMMAX =          18
 
  PAW_PBE Pt_pv 12Dec2005               :
 energy of atom  1       EATOM=-2428.2504
 kinetic energy error for atom=    0.0356 (will be added to EATOM!!)
 
 
 POSCAR: Pt
  positions in cartesian coordinates
  No initial velocities read in
 exchange correlation table for  LEXCH =        8
   RHO(1)=    0.500       N(1)  =     2000
   RHO(2)=  100.500       N(2)  =     4000
 


--------------------------------------------------------------------------------------------------------


 ion  position               nearest neighbor table
   1  0.000  0.000  0.000-
   2  0.333  0.667  0.500-
 
  LATTYP: Found a hexagonal cell.
 ALAT       =     2.8355612856
 C/A-ratio  =     1.7324766951
  
  Lattice vectors:
  
 A1 = (   2.8355612856,   0.0000000000,   0.0000000000)
 A2 = (  -1.4177806428,   2.4556681073,   0.0000000000)
 A3 = (   0.0000000000,   0.0000000000,   4.9125438449)


Analysis of symmetry for initial positions (statically):
=====================================================================
 Subroutine PRICEL returns:
 Original cell was already a primitive cell.
 

 Routine SETGRP: Setting up the symmetry group for a 
 hexagonal supercell.


 Subroutine GETGRP returns: Found 24 space group operations
 (whereof 12 operations were pure point group operations)
 out of a pool of 24 trial point group operations.


The static configuration has the point symmetry D_3h.
 The point group associated with its full space group is D_6h.


Analysis of symmetry for dynamics (positions and initial velocities):
=====================================================================
 Subroutine PRICEL returns:
 Original cell was already a primitive cell.
 

 Routine SETGRP: Setting up the symmetry group for a 
 hexagonal supercell.


 Subroutine GETGRP returns: Found 24 space group operations
 (whereof 12 operations were pure point group operations)
 out of a pool of 24 trial point group operations.


The dynamic configuration has the point symmetry D_3h.
 The point group associated with its full space group is D_6h.


 Subroutine INISYM returns: Found 24 space group operations
 (whereof 12 operations are pure point group operations),
 and found     1 'primitive' translations


----------------------------------------------------------------------------------------

                                     Primitive cell                                     

  volume of cell :      34.2070

  direct lattice vectors                    reciprocal lattice vectors
     2.835561286  0.000000000  0.000000000     0.352663864  0.203610577  0.000000000
    -1.417780643  2.455668107  0.000000000     0.000000000  0.407221154  0.000000000
     0.000000000  0.000000000  4.912543845     0.000000000  0.000000000  0.203560524

  length of vectors
     2.835561286  2.835561286  4.912543845     0.407221154  0.407221154  0.203560524

  position of ions in fractional coordinates (direct lattice)
     0.000000000  0.000000000  0.000000000
     0.333333333  0.666666667  0.500000000

  ion indices of the primitive-cell ions
   primitive index   ion index
                 1           1
                 2           2

----------------------------------------------------------------------------------------

 
 
 KPOINTS: Automatic mesh                          

Automatic generation of k-mesh.
 Grid dimensions read from file:
 generate k-points for:   10   10    8

 Generating k-lattice:

  Cartesian coordinates                     Fractional coordinates (reciprocal lattice)
     0.035266386  0.020361058  0.000000000     0.100000000 -0.000000000  0.000000000
     0.000000000  0.040722115  0.000000000     0.000000000  0.100000000  0.000000000
     0.000000000  0.000000000  0.025445066     0.000000000  0.000000000  0.125000000

  Length of vectors
     0.040722115  0.040722115  0.025445066

  Shift w.r.t. Gamma in fractional coordinates (k-lattice)
     0.000000000  0.000000000  0.000000000

 
 Subroutine IBZKPT returns following result:
 ===========================================
 
 Found     70 irreducible k-points:
 
 Following reciprocal coordinates:
            Coordinates               Weight
  0.000000  0.000000  0.000000      1.000000
  0.100000  0.000000  0.000000      6.000000
  0.200000  0.000000  0.000000      6.000000
  0.300000 -0.000000  0.000000      6.000000
  0.400000 -0.000000  0.000000      6.000000
  0.500000  0.000000  0.000000      3.000000
  0.100000  0.100000  0.000000      6.000000
  0.200000  0.100000  0.000000     12.000000
  0.300000  0.100000  0.000000     12.000000
  0.400000  0.100000  0.000000     12.000000
  0.200000  0.200000  0.000000      6.000000
  0.300000  0.200000  0.000000     12.000000
  0.400000  0.200000  0.000000      6.000000
  0.300000  0.300000  0.000000      6.000000
  0.000000  0.000000  0.125000      2.000000
  0.100000  0.000000  0.125000     12.000000
  0.200000  0.000000  0.125000     12.000000
  0.300000 -0.000000  0.125000     12.000000
  0.400000 -0.000000  0.125000     12.000000
  0.500000  0.000000  0.125000      6.000000
  0.100000  0.100000  0.125000     12.000000
  0.200000  0.100000  0.125000     24.000000
  0.300000  0.100000  0.125000     24.000000
  0.400000  0.100000  0.125000     24.000000
  0.200000  0.200000  0.125000     12.000000
  0.300000  0.200000  0.125000     24.000000
  0.400000  0.200000  0.125000     12.000000
  0.300000  0.300000  0.125000     12.000000
  0.000000  0.000000  0.250000      2.000000
  0.100000  0.000000  0.250000     12.000000
  0.200000  0.000000  0.250000     12.000000
  0.300000 -0.000000  0.250000     12.000000
  0.400000 -0.000000  0.250000     12.000000
  0.500000  0.000000  0.250000      6.000000
  0.100000  0.100000  0.250000     12.000000
  0.200000  0.100000  0.250000     24.000000
  0.300000  0.100000  0.250000     24.000000
  0.400000  0.100000  0.250000     24.000000
  0.200000  0.200000  0.250000     12.000000
  0.300000  0.200000  0.250000     24.000000
  0.400000  0.200000  0.250000     12.000000
  0.300000  0.300000  0.250000     12.000000
  0.000000  0.000000  0.375000      2.000000
  0.100000  0.000000  0.375000     12.000000
  0.200000  0.000000  0.375000     12.000000
  0.300000 -0.000000  0.375000     12.000000
  0.400000 -0.000000  0.375000     12.000000
  0.500000  0.000000  0.375000      6.000000
  0.100000  0.100000  0.375000     12.000000
  0.200000  0.100000  0.375000     24.000000
  0.300000  0.100000  0.375000     24.000000
  0.400000  0.100000  0.375000     24.000000
  0.200000  0.200000  0.375000     12.000000
  0.300000  0.200000  0.375000     24.000000
  0.400000  0.200000  0.375000     12.000000
  0.300000  0.300000  0.375000     12.000000
  0.000000  0.000000  0.500000      1.000000
  0.100000  0.000000  0.500000      6.000000
  0.200000  0.000000  0.500000      6.000000
  0.300000 -0.000000  0.500000      6.000000
  0.400000 -0.000000  0.500000      6.000000
  0.500000  0.000000  0.500000      3.000000
  0.100000  0.100000  0.500000      6.000000
  0.200000  0.100000  0.500000     12.000000
  0.300000  0.100000  0.500000     12.000000
  0.400000  0.100000  0.500000     12.000000
  0.200000  0.200000  0.500000      6.000000
  0.300000  0.200000  0.500000     12.000000
  0.400000  0.200000  0.500000      6.000000
  0.300000  0.300000  0.500000      6.000000
 
 Following cartesian coordinates:
            Coordinates               Weight
  0.000000  0.000000  0.000000      1.000000
  0.035266  0.020361  0.000000      6.000000
  0.070533  0.040722  0.000000      6.000000
  0.105799  0.061083  0.000000      6.000000
  0.141066  0.081444  0.000000      6.000000
  0.176332  0.101805  0.000000      3.000000
  0.035266  0.061083  0.000000      6.000000
  0.070533  0.081444  0.000000     12.000000
  0.105799  0.101805  0.000000     12.000000
  0.141066  0.122166  0.000000     12.000000
  0.070533  0.122166  0.000000      6.000000
  0.105799  0.142527  0.000000     12.000000
  0.141066  0.162888  0.000000      6.000000
  0.105799  0.183250  0.000000      6.000000
  0.000000  0.000000  0.025445      2.000000
  0.035266  0.020361  0.025445     12.000000
  0.070533  0.040722  0.025445     12.000000
  0.105799  0.061083  0.025445     12.000000
  0.141066  0.081444  0.025445     12.000000
  0.176332  0.101805  0.025445      6.000000
  0.035266  0.061083  0.025445     12.000000
  0.070533  0.081444  0.025445     24.000000
  0.105799  0.101805  0.025445     24.000000
  0.141066  0.122166  0.025445     24.000000
  0.070533  0.122166  0.025445     12.000000
  0.105799  0.142527  0.025445     24.000000
  0.141066  0.162888  0.025445     12.000000
  0.105799  0.183250  0.025445     12.000000
  0.000000  0.000000  0.050890      2.000000
  0.035266  0.020361  0.050890     12.000000
  0.070533  0.040722  0.050890     12.000000
  0.105799  0.061083  0.050890     12.000000
  0.141066  0.081444  0.050890     12.000000
  0.176332  0.101805  0.050890      6.000000
  0.035266  0.061083  0.050890     12.000000
  0.070533  0.081444  0.050890     24.000000
  0.105799  0.101805  0.050890     24.000000
  0.141066  0.122166  0.050890     24.000000
  0.070533  0.122166  0.050890     12.000000
  0.105799  0.142527  0.050890     24.000000
  0.141066  0.162888  0.050890     12.000000
  0.105799  0.183250  0.050890     12.000000
  0.000000  0.000000  0.076335      2.000000
  0.035266  0.020361  0.076335     12.000000
  0.070533  0.040722  0.076335     12.000000
  0.105799  0.061083  0.076335     12.000000
  0.141066  0.081444  0.076335     12.000000
  0.176332  0.101805  0.076335      6.000000
  0.035266  0.061083  0.076335     12.000000
  0.070533  0.081444  0.076335     24.000000
  0.105799  0.101805  0.076335     24.000000
  0.141066  0.122166  0.076335     24.000000
  0.070533  0.122166  0.076335     12.000000
  0.105799  0.142527  0.076335     24.000000
  0.141066  0.162888  0.076335     12.000000
  0.105799  0.183250  0.076335     12.000000
  0.000000  0.000000  0.101780      1.000000
  0.035266  0.020361  0.101780      6.000000
  0.070533  0.040722  0.101780      6.000000
  0.105799  0.061083  0.101780      6.000000
  0.141066  0.081444  0.101780      6.000000
  0.176332  0.101805  0.101780      3.000000
  0.035266  0.061083  0.101780      6.000000
  0.070533  0.081444  0.101780     12.000000
  0.105799  0.101805  0.101780     12.000000
  0.141066  0.122166  0.101780     12.000000
  0.070533  0.122166  0.101780      6.000000
  0.105799  0.142527  0.101780     12.000000
  0.141066  0.162888  0.101780      6.000000
  0.105799  0.183250  0.101780      6.000000
 


--------------------------------------------------------------------------------------------------------




 Dimension of arrays:
   k-points           NKPTS =     70   k-points in BZ     NKDIM =     70   number of bands    NBANDS=     24
   number of dos      NEDOS =    301   number of ions     NIONS =      2
   non local maximal  LDIM  =      6   non local SUM 2l+1 LMDIM =     18
   total plane-waves  NPLWV =  14400
   max r-space proj   IRMAX =      1   max aug-charges    IRDMAX=  14531
   dimension x,y,z NGX =    20 NGY =   20 NGZ =   36
   dimension x,y,z NGXF=    40 NGYF=   40 NGZF=   72
   support grid    NGXF=    40 NGYF=   40 NGZF=   72
   ions per type =               2
   NGX,Y,Z   is equivalent  to a cutoff of  11.73, 11.73, 12.18 a.u.
   NGXF,Y,Z  is equivalent  to a cutoff of  23.45, 23.45, 24.37 a.u.

 SYSTEM =  Pt-hcc                                  
 POSCAR =  Pt                                      

 Startparameter for this run:
   NWRITE =      2    write-flag & timer
   PREC   = accura    normal or accurate (medium, high low for compatibility)
   ISTART =      0    job   : 0-new  1-cont  2-samecut
   ICHARG =      2    charge: 1-file 2-atom 10-const
   ISPIN  =      1    spin polarized calculation?
   LNONCOLLINEAR =      F non collinear calculations
   LSORBIT =      F    spin-orbit coupling
   INIWAV =      1    electr: 0-lowe 1-rand  2-diag
   LASPH  =      F    aspherical Exc in radial PAW
 Electronic Relaxation 1
   ENCUT  =  450.0 eV  33.07 Ry    5.75 a.u.   4.90  4.90  8.50*2*pi/ulx,y,z
   ENINI  =  450.0     initial cutoff
   ENAUG  =  527.0 eV  augmentation charge cutoff
   NELM   =    100;   NELMIN=  2; NELMDL= -5     # of ELM steps 
   EDIFF  = 0.1E-05   stopping-criterion for ELM
   LREAL  =      F    real-space projection
   NLSPLINE    = F    spline interpolate recip. space projectors
   LCOMPAT=      F    compatible to vasp.4.4
   GGA_COMPAT  = T    GGA compatible to vasp.4.4-vasp.4.6
   LMAXPAW     = -100 max onsite density
   LMAXMIX     =    2 max onsite mixed and CHGCAR
   VOSKOWN=      0    Vosko Wilk Nusair interpolation
   ROPT   =    0.00000
 Ionic relaxation
   EDIFFG = -.2E-01   stopping-criterion for IOM
   NSW    =    100    number of steps for IOM
   NBLOCK =      1;   KBLOCK =    100    inner block; outer block 
   IBRION =      2    ionic relax: 0-MD 1-quasi-New 2-CG
   NFREE  =      1    steps in history (QN), initial steepest desc. (CG)
   ISIF   =      2    stress and relaxation
   IWAVPR =     11    prediction:  0-non 1-charg 2-wave 3-comb
   ISYM   =      1    0-nonsym 1-usesym 2-fastsym
   LCORR  =      T    Harris-Foulkes like correction to forces

   POTIM  = 0.5000    time-step for ionic-motion
   TEIN   =    0.0    initial temperature
   TEBEG  =    0.0;   TEEND  =   0.0 temperature during run
   SMASS  =  -3.00    Nose mass-parameter (am)
   estimated Nose-frequenzy (Omega)   =  0.10E-29 period in steps = 0.13E+47 mass=  -0.184E-27a.u.
   SCALEE = 1.0000    scale energy and forces
   NPACO  =    256;   APACO  = 10.0  distance and # of slots for P.C.
   PSTRESS=    0.0 pullay stress

  Mass of Ions in am
   POMASS = 195.08
  Ionic Valenz
   ZVAL   =  16.00
  Atomic Wigner-Seitz radii
   RWIGS  =  -1.00
  virtual crystal weights 
   VCA    =   1.00
   NELECT =      32.0000    total number of electrons
   NUPDOWN=      -1.0000    fix difference up-down

 DOS related values:
   EMIN   =  10.00;   EMAX   =-10.00  energy-range for DOS
   EFERMI =   0.00
   ISMEAR =     0;   SIGMA  =   0.05  broadening in eV -4-tet -1-fermi 0-gaus

 Electronic relaxation 2 (details)
   IALGO  =     38    algorithm
   LDIAG  =      T    sub-space diagonalisation (order eigenvalues)
   LSUBROT=      F    optimize rotation matrix (better conditioning)
   TURBO    =      0    0=normal 1=particle mesh
   IRESTART =      0    0=no restart 2=restart with 2 vectors
   NREBOOT  =      0    no. of reboots
   NMIN     =      0    reboot dimension
   EREF     =   0.00    reference energy to select bands
   IMIX   =      4    mixing-type and parameters
     AMIX     =   0.40;   BMIX     =  1.00
     AMIX_MAG =   1.60;   BMIX_MAG =  1.00
     AMIN     =   0.10
     WC   =   100.;   INIMIX=   1;  MIXPRE=   1;  MAXMIX= -45

 Intra band minimization:
   WEIMIN = 0.0010     energy-eigenvalue tresh-hold
   EBREAK =  0.10E-07  absolut break condition
   DEPER  =   0.30     relativ break condition  

   TIME   =   0.40     timestep for ELM

  volume/ion in A,a.u.               =      17.10       115.42
  Fermi-wavevector in a.u.,A,eV,Ry     =   1.601105  3.025649 34.879035  2.563537
  Thomas-Fermi vector in A             =   2.698136
 
 Write flags
   LWAVE        =      T    write WAVECAR
   LDOWNSAMPLE  =      F    k-point downsampling of WAVECAR
   LCHARG       =      T    write CHGCAR
   LVTOT        =      F    write LOCPOT, total local potential
   LVHAR        =      F    write LOCPOT, Hartree potential only
   LELF         =      F    write electronic localiz. function (ELF)
   LORBIT       =     11    0 simple, 1 ext, 2 COOP (PROOUT), +10 PAW based schemes


 Dipole corrections
   LMONO  =      F    monopole corrections only (constant potential shift)
   LDIPOL =      F    correct potential (dipole corrections)
   IDIPOL =      0    1-x, 2-y, 3-z, 4-all directions 
   EPSILON=  1.0000000 bulk dielectric constant

 Exchange correlation treatment:
   GGA     =    --    GGA type
   LEXCH   =     8    internal setting for exchange type
   LIBXC   =     F    Libxc                    
   VOSKOWN =     0    Vosko Wilk Nusair interpolation
   LHFCALC =     F    Hartree Fock is set to
   LHFONE  =     F    Hartree Fock one center treatment
   AEXX    =    0.0000 exact exchange contribution

 Linear response parameters
   LEPSILON=     F    determine dielectric tensor
   LRPA    =     F    only Hartree local field effects (RPA)
   LNABLA  =     F    use nabla operator in PAW spheres
   LVEL    =     F    velocity operator in full k-point grid
   CSHIFT  =0.1000    complex shift for real part using Kramers Kronig
   OMEGAMAX=  -1.0    maximum frequency
   DEG_THRESHOLD= 0.2000000E-02 threshold for treating states as degnerate
   RTIME   =   -0.100 relaxation time in fs
  (WPLASMAI=    0.000 imaginary part of plasma frequency in eV, 0.658/RTIME)
   DFIELD  = 0.0000000 0.0000000 0.0000000 field for delta impulse in time
 
  Optional k-point grid parameters
   LKPOINTS_OPT  =     F    use optional k-point grid
   KPOINTS_OPT_MODE=     1    mode for optional k-point grid
 
 Orbital magnetization related:
   ORBITALMAG=     F  switch on orbital magnetization
   LCHIMAG   =     F  perturbation theory with respect to B field
   DQ        =  0.001000  dq finite difference perturbation B field
   LLRAUG    =     F  two centre corrections for induced B field



--------------------------------------------------------------------------------------------------------


 conjugate gradient relaxation of ions
 charge density and potential will be updated during run
 non-spin polarized calculation
 Variant of blocked Davidson
 Davidson routine will perform the subspace rotation
 perform sub-space diagonalisation
    after iterative eigenvector-optimisation
 modified Broyden-mixing scheme, WC =      100.0
 initial mixing is a Kerker type mixing with AMIX =  0.4000 and BMIX =      1.0000
 Hartree-type preconditioning will be used
 using additional bands            8
 reciprocal scheme for non local part
 use partial core corrections
 calculate Harris-corrections to forces 
   (improved forces if not selfconsistent)
 use gradient corrections 
 use of overlap-Matrix (Vanderbilt PP)
 Gauss-broadening in eV      SIGMA  =   0.05


--------------------------------------------------------------------------------------------------------


  energy-cutoff  :      450.00
  volume of cell :       34.21
      direct lattice vectors                 reciprocal lattice vectors
     2.835561286  0.000000000  0.000000000     0.352663864  0.203610577  0.000000000
    -1.417780643  2.455668107  0.000000000     0.000000000  0.407221154  0.000000000
     0.000000000  0.000000000  4.912543845     0.000000000  0.000000000  0.203560524

  length of vectors
     2.835561286  2.835561286  4.912543845     0.407221154  0.407221154  0.203560524


 
 k-points in units of 2pi/SCALE and weight: Automatic mesh                          
   0.00000000  0.00000000  0.00000000       0.001
   0.03526639  0.02036106  0.00000000       0.007
   0.07053277  0.04072212  0.00000000       0.007
   0.10579916  0.06108317  0.00000000       0.007
   0.14106555  0.08144423  0.00000000       0.007
   0.17633193  0.10180529  0.00000000       0.004
   0.03526639  0.06108317  0.00000000       0.007
   0.07053277  0.08144423  0.00000000       0.015
   0.10579916  0.10180529  0.00000000       0.015
   0.14106555  0.12216635  0.00000000       0.015
   0.07053277  0.12216635  0.00000000       0.007
   0.10579916  0.14252740  0.00000000       0.015
   0.14106555  0.16288846  0.00000000       0.007
   0.10579916  0.18324952  0.00000000       0.007
   0.00000000  0.00000000  0.02544507       0.003
   0.03526639  0.02036106  0.02544507       0.015
   0.07053277  0.04072212  0.02544507       0.015
   0.10579916  0.06108317  0.02544507       0.015
   0.14106555  0.08144423  0.02544507       0.015
   0.17633193  0.10180529  0.02544507       0.007
   0.03526639  0.06108317  0.02544507       0.015
   0.07053277  0.08144423  0.02544507       0.030
   0.10579916  0.10180529  0.02544507       0.030
   0.14106555  0.12216635  0.02544507       0.030
   0.07053277  0.12216635  0.02544507       0.015
   0.10579916  0.14252740  0.02544507       0.030
   0.14106555  0.16288846  0.02544507       0.015
   0.10579916  0.18324952  0.02544507       0.015
   0.00000000  0.00000000  0.05089013       0.003
   0.03526639  0.02036106  0.05089013       0.015
   0.07053277  0.04072212  0.05089013       0.015
   0.10579916  0.06108317  0.05089013       0.015
   0.14106555  0.08144423  0.05089013       0.015
   0.17633193  0.10180529  0.05089013       0.007
   0.03526639  0.06108317  0.05089013       0.015
   0.07053277  0.08144423  0.05089013       0.030
   0.10579916  0.10180529  0.05089013       0.030
   0.14106555  0.12216635  0.05089013       0.030
   0.07053277  0.12216635  0.05089013       0.015
   0.10579916  0.14252740  0.05089013       0.030
   0.14106555  0.16288846  0.05089013       0.015
   0.10579916  0.18324952  0.05089013       0.015
   0.00000000  0.00000000  0.07633520       0.003
   0.03526639  0.02036106  0.07633520       0.015
   0.07053277  0.04072212  0.07633520       0.015
   0.10579916  0.06108317  0.07633520       0.015
   0.14106555  0.08144423  0.07633520       0.015
   0.17633193  0.10180529  0.07633520       0.007
   0.03526639  0.06108317  0.07633520       0.015
   0.07053277  0.08144423  0.07633520       0.030
   0.10579916  0.10180529  0.07633520       0.030
   0.14106555  0.12216635  0.07633520       0.030
   0.07053277  0.12216635  0.07633520       0.015
   0.10579916  0.14252740  0.07633520       0.030
   0.14106555  0.16288846  0.07633520       0.015
   0.10579916  0.18324952  0.07633520       0.015
   0.00000000  0.00000000  0.10178026       0.001
   0.03526639  0.02036106  0.10178026       0.007
   0.07053277  0.04072212  0.10178026       0.007
   0.10579916  0.06108317  0.10178026       0.007
   0.14106555  0.08144423  0.10178026       0.007
   0.17633193  0.10180529  0.10178026       0.004
   0.03526639  0.06108317  0.10178026       0.007
   0.07053277  0.08144423  0.10178026       0.015
   0.10579916  0.10180529  0.10178026       0.015
   0.14106555  0.12216635  0.10178026       0.015
   0.07053277  0.12216635  0.10178026       0.007
   0.10579916  0.14252740  0.10178026       0.015
   0.14106555  0.16288846  0.10178026       0.007
   0.10579916  0.18324952  0.10178026       0.007
 
 k-points in reciprocal lattice and weights: Automatic mesh                          
   0.00000000  0.00000000  0.00000000       0.001
   0.10000000  0.00000000  0.00000000       0.007
   0.20000000  0.00000000  0.00000000       0.007
   0.30000000 -0.00000000  0.00000000       0.007
   0.40000000 -0.00000000  0.00000000       0.007
   0.50000000  0.00000000  0.00000000       0.004
   0.10000000  0.10000000  0.00000000       0.007
   0.20000000  0.10000000  0.00000000       0.015
   0.30000000  0.10000000  0.00000000       0.015
   0.40000000  0.10000000  0.00000000       0.015
   0.20000000  0.20000000  0.00000000       0.007
   0.30000000  0.20000000  0.00000000       0.015
   0.40000000  0.20000000  0.00000000       0.007
   0.30000000  0.30000000  0.00000000       0.007
   0.00000000  0.00000000  0.12500000       0.003
   0.10000000  0.00000000  0.12500000       0.015
   0.20000000  0.00000000  0.12500000       0.015
   0.30000000 -0.00000000  0.12500000       0.015
   0.40000000 -0.00000000  0.12500000       0.015
   0.50000000  0.00000000  0.12500000       0.007
   0.10000000  0.10000000  0.12500000       0.015
   0.20000000  0.10000000  0.12500000       0.030
   0.30000000  0.10000000  0.12500000       0.030
   0.40000000  0.10000000  0.12500000       0.030
   0.20000000  0.20000000  0.12500000       0.015
   0.30000000  0.20000000  0.12500000       0.030
   0.40000000  0.20000000  0.12500000       0.015
   0.30000000  0.30000000  0.12500000       0.015
   0.00000000  0.00000000  0.25000000       0.003
   0.10000000  0.00000000  0.25000000       0.015
   0.20000000  0.00000000  0.25000000       0.015
   0.30000000 -0.00000000  0.25000000       0.015
   0.40000000 -0.00000000  0.25000000       0.015
   0.50000000  0.00000000  0.25000000       0.007
   0.10000000  0.10000000  0.25000000       0.015
   0.20000000  0.10000000  0.25000000       0.030
   0.30000000  0.10000000  0.25000000       0.030
   0.40000000  0.10000000  0.25000000       0.030
   0.20000000  0.20000000  0.25000000       0.015
   0.30000000  0.20000000  0.25000000       0.030
   0.40000000  0.20000000  0.25000000       0.015
   0.30000000  0.30000000  0.25000000       0.015
   0.00000000  0.00000000  0.37500000       0.003
   0.10000000  0.00000000  0.37500000       0.015
   0.20000000  0.00000000  0.37500000       0.015
   0.30000000 -0.00000000  0.37500000       0.015
   0.40000000 -0.00000000  0.37500000       0.015
   0.50000000  0.00000000  0.37500000       0.007
   0.10000000  0.10000000  0.37500000       0.015
   0.20000000  0.10000000  0.37500000       0.030
   0.30000000  0.10000000  0.37500000       0.030
   0.40000000  0.10000000  0.37500000       0.030
   0.20000000  0.20000000  0.37500000       0.015
   0.30000000  0.20000000  0.37500000       0.030
   0.40000000  0.20000000  0.37500000       0.015
   0.30000000  0.30000000  0.37500000       0.015
   0.00000000  0.00000000  0.50000000       0.001
   0.10000000  0.00000000  0.50000000       0.007
   0.20000000  0.00000000  0.50000000       0.007
   0.30000000 -0.00000000  0.50000000       0.007
   0.40000000 -0.00000000  0.50000000       0.007
   0.50000000  0.00000000  0.50000000       0.004
   0.10000000  0.10000000  0.50000000       0.007
   0.20000000  0.10000000  0.50000000       0.015
   0.30000000  0.10000000  0.50000000       0.015
   0.40000000  0.10000000  0.50000000       0.015
   0.20000000  0.20000000  0.50000000       0.007
   0.30000000  0.20000000  0.50000000       0.015
   0.40000000  0.20000000  0.50000000       0.007
   0.30000000  0.30000000  0.50000000       0.007
 
 position of ions in fractional coordinates (direct lattice) 
   0.00000000  0.00000000  0.00000000
   0.33333333  0.66666667  0.50000000
 
 position of ions in cartesian coordinates  (Angst):
   0.00000000  0.00000000  0.00000000
   0.00000000  1.63711207  2.45627192
 


--------------------------------------------------------------------------------------------------------


 k-point   1 :   0.0000 0.0000 0.0000  plane waves:     725
 k-point   2 :   0.1000 0.0000 0.0000  plane waves:     729
 k-point   3 :   0.2000 0.0000 0.0000  plane waves:     739
 k-point   4 :   0.3000-0.0000 0.0000  plane waves:     746
 k-point   5 :   0.4000-0.0000 0.0000  plane waves:     748
 k-point   6 :   0.5000 0.0000 0.0000  plane waves:     740
 k-point   7 :   0.1000 0.1000 0.0000  plane waves:     729
 k-point   8 :   0.2000 0.1000 0.0000  plane waves:     742
 k-point   9 :   0.3000 0.1000 0.0000  plane waves:     745
 k-point  10 :   0.4000 0.1000 0.0000  plane waves:     747
 k-point  11 :   0.2000 0.2000 0.0000  plane waves:     743
 k-point  12 :   0.3000 0.2000 0.0000  plane waves:     753
 k-point  13 :   0.4000 0.2000 0.0000  plane waves:     741
 k-point  14 :   0.3000 0.3000 0.0000  plane waves:     739
 k-point  15 :   0.0000 0.0000 0.1250  plane waves:     725
 k-point  16 :   0.1000 0.0000 0.1250  plane waves:     729
 k-point  17 :   0.2000 0.0000 0.1250  plane waves:     743
 k-point  18 :   0.3000-0.0000 0.1250  plane waves:     743
 k-point  19 :   0.4000-0.0000 0.1250  plane waves:     739
 k-point  20 :   0.5000 0.0000 0.1250  plane waves:     742
 k-point  21 :   0.1000 0.1000 0.1250  plane waves:     732
 k-point  22 :   0.2000 0.1000 0.1250  plane waves:     741
 k-point  23 :   0.3000 0.1000 0.1250  plane waves:     739
 k-point  24 :   0.4000 0.1000 0.1250  plane waves:     745
 k-point  25 :   0.2000 0.2000 0.1250  plane waves:     744
 k-point  26 :   0.3000 0.2000 0.1250  plane waves:     747
 k-point  27 :   0.4000 0.2000 0.1250  plane waves:     748
 k-point  28 :   0.3000 0.3000 0.1250  plane waves:     757
 k-point  29 :   0.0000 0.0000 0.2500  plane waves:     737
 k-point  30 :   0.1000 0.0000 0.2500  plane waves:     731
 k-point  31 :   0.2000 0.0000 0.2500  plane waves:     743
 k-point  32 :   0.3000-0.0000 0.2500  plane waves:     734
 k-point  33 :   0.4000-0.0000 0.2500  plane waves:     740
 k-point  34 :   0.5000 0.0000 0.2500  plane waves:     750
 k-point  35 :   0.1000 0.1000 0.2500  plane waves:     738
 k-point  36 :   0.2000 0.1000 0.2500  plane waves:     735
 k-point  37 :   0.3000 0.1000 0.2500  plane waves:     740
 k-point  38 :   0.4000 0.1000 0.2500  plane waves:     745
 k-point  39 :   0.2000 0.2000 0.2500  plane waves:     738
 k-point  40 :   0.3000 0.2000 0.2500  plane waves:     747
 k-point  41 :   0.4000 0.2000 0.2500  plane waves:     749
 k-point  42 :   0.3000 0.3000 0.2500  plane waves:     757
 k-point  43 :   0.0000 0.0000 0.3750  plane waves:     743
 k-point  44 :   0.1000 0.0000 0.3750  plane waves:     733
 k-point  45 :   0.2000 0.0000 0.3750  plane waves:     735
 k-point  46 :   0.3000-0.0000 0.3750  plane waves:     737
 k-point  47 :   0.4000-0.0000 0.3750  plane waves:     747
 k-point  48 :   0.5000 0.0000 0.3750  plane waves:     742
 k-point  49 :   0.1000 0.1000 0.3750  plane waves:     735
 k-point  50 :   0.2000 0.1000 0.3750  plane waves:     734
 k-point  51 :   0.3000 0.1000 0.3750  plane waves:     736
 k-point  52 :   0.4000 0.1000 0.3750  plane waves:     744
 k-point  53 :   0.2000 0.2000 0.3750  plane waves:     736
 k-point  54 :   0.3000 0.2000 0.3750  plane waves:     746
 k-point  55 :   0.4000 0.2000 0.3750  plane waves:     750
 k-point  56 :   0.3000 0.3000 0.3750  plane waves:     757
 k-point  57 :   0.0000 0.0000 0.5000  plane waves:     724
 k-point  58 :   0.1000 0.0000 0.5000  plane waves:     736
 k-point  59 :   0.2000 0.0000 0.5000  plane waves:     736
 k-point  60 :   0.3000-0.0000 0.5000  plane waves:     738
 k-point  61 :   0.4000-0.0000 0.5000  plane waves:     744
 k-point  62 :   0.5000 0.0000 0.5000  plane waves:     732
 k-point  63 :   0.1000 0.1000 0.5000  plane waves:     734
 k-point  64 :   0.2000 0.1000 0.5000  plane waves:     736
 k-point  65 :   0.3000 0.1000 0.5000  plane waves:     730
 k-point  66 :   0.4000 0.1000 0.5000  plane waves:     744
 k-point  67 :   0.2000 0.2000 0.5000  plane waves:     734
 k-point  68 :   0.3000 0.2000 0.5000  plane waves:     738
 k-point  69 :   0.4000 0.2000 0.5000  plane waves:     746
 k-point  70 :   0.3000 0.3000 0.5000  plane waves:     752

 maximum and minimum number of plane-waves per node :       757      724

 maximum number of plane-waves:       757
 maximum index in each direction: 
   IXMAX=    4   IYMAX=    4   IZMAX=    8
   IXMIN=   -5   IYMIN=   -5   IZMIN=   -8


 serial   3D FFT for wavefunctions
 parallel 3D FFT for charge:
    minimum data exchange during FFTs selected (reduces bandwidth)


 total amount of memory used by VASP MPI-rank0    39828. kBytes
=======================================================================

   base      :      30000. kBytes
   nonl-proj :       7766. kBytes
   fftplans  :        254. kBytes
   grid      :        864. kBytes
   one-center:         31. kBytes
   wavefun   :        913. kBytes
 
     INWAV:  cpu time      0.0000: real time      0.0004
 Broyden mixing: mesh for mixing (old mesh)
   NGX =  9   NGY =  9   NGZ = 17
  (NGX  = 40   NGY  = 40   NGZ  = 72)
  gives a total of   1377 points

 initial charge density was supplied:
 charge density of overlapping atoms calculated
 number of electron      32.0000000 magnetization 
 keeping initial charge density in first step


--------------------------------------------------------------------------------------------------------


 Maximum index for augmentation-charges          666 (set IRDMAX)


--------------------------------------------------------------------------------------------------------


 First call to EWALD:  gamma=   0.546
 Maximum number of real-space cells 3x 3x 2
 Maximum number of reciprocal cells 2x 2x 4

    FEWALD:  cpu time      0.0014: real time      0.0014


--------------------------------------- Iteration      1(   1)  ---------------------------------------


    POTLOK:  cpu time      0.0037: real time      0.0038
    SETDIJ:  cpu time      0.0022: real time      0.0022
     EDDAV:  cpu time      0.3123: real time      0.3143
       DOS:  cpu time      0.0005: real time      0.0006
    --------------------------------------------
      LOOP:  cpu time      0.3188: real time      0.3209

 eigenvalue-minimisations  :  3360
 total energy-change (2. order) : 0.1458705E+03  (-0.2290325E+04)
 number of electron      32.0000000 magnetization 
 augmentation part       32.0000000 magnetization 

 Free energy of the ion-electron system (eV)
  ---------------------------------------------------
  alpha Z        PSCENC =       280.56452492
  Ewald energy   TEWEN  =     -4130.22244714
  -Hartree energ DENC   =      -872.55047490
  -exchange      EXHF   =         0.00000000
  -V(xc)+E(xc)   XCENC  =       126.59697489
  PAW double counting   =      4131.50523274    -4061.67189606
  entropy T*S    EENTRO =        -0.00145516
  eigenvalues    EBANDS =      -184.77966085
  atomic energy  EATOM  =      4856.42966544
  Solvation  Ediel_sol  =         0.00000000
  ---------------------------------------------------
  free energy    TOTEN  =       145.87046389 eV

  energy without entropy =      145.87191905  energy(sigma->0) =      145.87119147


--------------------------------------------------------------------------------------------------------




--------------------------------------- Iteration      1(   2)  ---------------------------------------


     EDDAV:  cpu time      0.3423: real time      0.3450
       DOS:  cpu time      0.0004: real time      0.0004
    --------------------------------------------
      LOOP:  cpu time      0.3427: real time      0.3454

 eigenvalue-minimisations  :  3600
 total energy-change (2. order) :-0.1569424E+03  (-0.1562191E+03)
 number of electron      32.0000000 magnetization 
 augmentation part       32.0000000 magnetization 

 Free energy of the ion-electron system (eV)
  ---------------------------------------------------
  alpha Z        PSCENC =       280.56452492
  Ewald energy   TEWEN  =     -4130.22244714
  -Hartree energ DENC   =      -872.55047490
  -exchange      EXHF   =         0.00000000
  -V(xc)+E(xc)   XCENC  =       126.59697489
  PAW double counting   =      4131.50523274    -4061.67189606
  entropy T*S    EENTRO =        -0.00418050
  eigenvalues    EBANDS =      -341.71929360
  atomic energy  EATOM  =      4856.42966544
  Solvation  Ediel_sol  =         0.00000000
  ---------------------------------------------------
  free energy    TOTEN  =       -11.07189420 eV

  energy without entropy =      -11.06771370  energy(sigma->0) =      -11.06980395


--------------------------------------------------------------------------------------------------------




--------------------------------------- Iteration      1(   3)  ---------------------------------------


     EDDAV:  cpu time      0.4597: real time      0.4624
       DOS:  cpu time      0.0004: real time      0.0004
    --------------------------------------------
      LOOP:  cpu time      0.4601: real time      0.4628

 eigenvalue-minimisations  :  4296
 total energy-change (2. order) :-0.1540949E+01  (-0.1524066E+01)
 number of electron      32.0000000 magnetization 
 augmentation part       32.0000000 magnetization 

 Free energy of the ion-electron system (eV)
  ---------------------------------------------------
  alpha Z        PSCENC =       280.56452492
  Ewald energy   TEWEN  =     -4130.22244714
  -Hartree energ DENC   =      -872.55047490
  -exchange      EXHF   =         0.00000000
  -V(xc)+E(xc)   XCENC  =       126.59697489
  PAW double counting   =      4131.50523274    -4061.67189606
  entropy T*S    EENTRO =        -0.00515428
  eigenvalues    EBANDS =      -343.25926853
  atomic energy  EATOM  =      4856.42966544
  Solvation  Ediel_sol  =         0.00000000
  ---------------------------------------------------
  free energy    TOTEN  =       -12.61284292 eV

  energy without entropy =      -12.60768864  energy(sigma->0) =      -12.61026578


--------------------------------------------------------------------------------------------------------




--------------------------------------- Iteration      1(   4)  ---------------------------------------


     EDDAV:  cpu time      0.6264: real time      0.6297
       DOS:  cpu time      0.0004: real time      0.0004
    --------------------------------------------
      LOOP:  cpu time      0.6268: real time      0.6301

 eigenvalue-minimisations  :  5232
 total energy-change (2. order) :-0.4879239E-02  (-0.4879051E-02)
 number of electron      32.0000000 magnetization 
 augmentation part       32.0000000 magnetization 

 Free energy of the ion-electron system (eV)
  ---------------------------------------------------
  alpha Z        PSCENC =       280.56452492
  Ewald energy   TEWEN  =     -4130.22244714
  -Hartree energ DENC   =      -872.55047490
  -exchange      EXHF   =         0.00000000
  -V(xc)+E(xc)   XCENC  =       126.59697489
  PAW double counting   =      4131.50523274    -4061.67189606
  entropy T*S    EENTRO =        -0.00515792
  eigenvalues    EBANDS =      -343.26414413
  atomic energy  EATOM  =      4856.42966544
  Solvation  Ediel_sol  =         0.00000000
  ---------------------------------------------------
  free energy    TOTEN  =       -12.61772216 eV

  energy without entropy =      -12.61256423  energy(sigma->0) =      -12.61514320


--------------------------------------------------------------------------------------------------------




--------------------------------------- Iteration      1(   5)  ---------------------------------------


     EDDAV:  cpu time      0.4914: real time      0.4942
       DOS:  cpu time      0.0004: real time      0.0004
    CHARGE:  cpu time      0.0236: real time      0.0237
    MIXING:  cpu time      0.0003: real time      0.0003
    --------------------------------------------
      LOOP:  cpu time      0.5157: real time      0.5187

 eigenvalue-minimisations  :  4440
 total energy-change (2. order) :-0.1552959E-05  (-0.1552931E-05)
 number of electron      31.9999998 magnetization 
 augmentation part        7.9462334 magnetization 

 Broyden mixing:
  rms(total) = 0.16293E+01    rms(broyden)= 0.16290E+01
  rms(prec ) = 0.18842E+01
  weight for this iteration     100.00

 Free energy of the ion-electron system (eV)
  ---------------------------------------------------
  alpha Z        PSCENC =       280.56452492
  Ewald energy   TEWEN  =     -4130.22244714
  -Hartree energ DENC   =      -872.55047490
  -exchange      EXHF   =         0.00000000
  -V(xc)+E(xc)   XCENC  =       126.59697489
  PAW double counting   =      4131.50523274    -4061.67189606
  entropy T*S    EENTRO =        -0.00515791
  eigenvalues    EBANDS =      -343.26414570
  atomic energy  EATOM  =      4856.42966544
  Solvation  Ediel_sol  =         0.00000000
  ---------------------------------------------------
  free energy    TOTEN  =       -12.61772371 eV

  energy without entropy =      -12.61256580  energy(sigma->0) =      -12.61514475


--------------------------------------------------------------------------------------------------------




--------------------------------------- Iteration      1(   6)  ---------------------------------------


    POTLOK:  cpu time      0.0036: real time      0.0037
    SETDIJ:  cpu time      0.0022: real time      0.0022
     EDDAV:  cpu time      0.3428: real time      0.3447
       DOS:  cpu time      0.0004: real time      0.0004
    CHARGE:  cpu time      0.0226: real time      0.0227
    MIXING:  cpu time      0.0005: real time      0.0005
    --------------------------------------------
      LOOP:  cpu time      0.3720: real time      0.3741

 eigenvalue-minimisations  :  3576
 total energy-change (2. order) : 0.6944766E+00  (-0.2947772E+00)
 number of electron      31.9999998 magnetization 
 augmentation part        8.1939515 magnetization 

 Broyden mixing:
  rms(total) = 0.41669E+00    rms(broyden)= 0.41667E+00
  rms(prec ) = 0.46297E+00
  weight for this iteration     100.00

 eigenvalues of (default mixing * dielectric matrix)
  average eigenvalue GAMMA=   1.3036
  1.3036

 Free energy of the ion-electron system (eV)
  ---------------------------------------------------
  alpha Z        PSCENC =       280.56452492
  Ewald energy   TEWEN  =     -4130.22244714
  -Hartree energ DENC   =      -839.93628709
  -exchange      EXHF   =         0.00000000
  -V(xc)+E(xc)   XCENC  =       125.21352358
  PAW double counting   =      4354.60764514    -4288.60664168
  entropy T*S    EENTRO =        -0.00520914
  eigenvalues    EBANDS =      -369.96802117
  atomic energy  EATOM  =      4856.42966544
  Solvation  Ediel_sol  =         0.00000000
  ---------------------------------------------------
  free energy    TOTEN  =       -11.92324713 eV

  energy without entropy =      -11.91803800  energy(sigma->0) =      -11.92064257


--------------------------------------------------------------------------------------------------------




--------------------------------------- Iteration      1(   7)  ---------------------------------------


    POTLOK:  cpu time      0.0034: real time      0.0036
    SETDIJ:  cpu time      0.0020: real time      0.0020
     EDDAV:  cpu time      0.4725: real time      0.4751
       DOS:  cpu time      0.0004: real time      0.0004
    CHARGE:  cpu time      0.0223: real time      0.0224
    MIXING:  cpu time      0.0003: real time      0.0003
    --------------------------------------------
      LOOP:  cpu time      0.5008: real time      0.5037

 eigenvalue-minimisations  :  4488
 total energy-change (2. order) : 0.2529293E-01  (-0.1065034E-01)
 number of electron      31.9999998 magnetization 
 augmentation part        8.2360673 magnetization 

 Broyden mixing:
  rms(total) = 0.14744E+00    rms(broyden)= 0.14743E+00
  rms(prec ) = 0.16333E+00
  weight for this iteration     100.00

 eigenvalues of (default mixing * dielectric matrix)
  average eigenvalue GAMMA=   1.8905
  1.1296  2.6513

 Free energy of the ion-electron system (eV)
  ---------------------------------------------------
  alpha Z        PSCENC =       280.56452492
  Ewald energy   TEWEN  =     -4130.22244714
  -Hartree energ DENC   =      -833.56329658
  -exchange      EXHF   =         0.00000000
  -V(xc)+E(xc)   XCENC  =       124.92182936
  PAW double counting   =      4409.92185002    -4344.58324380
  entropy T*S    EENTRO =        -0.00571155
  eigenvalues    EBANDS =      -375.36112488
  atomic energy  EATOM  =      4856.42966544
  Solvation  Ediel_sol  =         0.00000000
  ---------------------------------------------------
  free energy    TOTEN  =       -11.89795420 eV

  energy without entropy =      -11.89224265  energy(sigma->0) =      -11.89509843


--------------------------------------------------------------------------------------------------------




--------------------------------------- Iteration      1(   8)  ---------------------------------------


    POTLOK:  cpu time      0.0034: real time      0.0036
    SETDIJ:  cpu time      0.0019: real time      0.0019
     EDDAV:  cpu time      0.3522: real time      0.3541
       DOS:  cpu time      0.0004: real time      0.0004
    CHARGE:  cpu time      0.0223: real time      0.0224
    MIXING:  cpu time      0.0003: real time      0.0003
    --------------------------------------------
      LOOP:  cpu time      0.3805: real time      0.3827

 eigenvalue-minimisations  :  3672
 total energy-change (2. order) : 0.1833995E-02  (-0.7225813E-03)
 number of electron      31.9999998 magnetization 
 augmentation part        8.2303941 magnetization 

 Broyden mixing:
  rms(total) = 0.12578E-01    rms(broyden)= 0.12547E-01
  rms(prec ) = 0.14629E-01
  weight for this iteration     100.00

 eigenvalues of (default mixing * dielectric matrix)
  average eigenvalue GAMMA=   1.5617
  1.0785  1.1902  2.4164

 Free energy of the ion-electron system (eV)
  ---------------------------------------------------
  alpha Z        PSCENC =       280.56452492
  Ewald energy   TEWEN  =     -4130.22244714
  -Hartree energ DENC   =      -833.16904194
  -exchange      EXHF   =         0.00000000
  -V(xc)+E(xc)   XCENC  =       124.87798449
  PAW double counting   =      4441.13425030    -4375.67843247
  entropy T*S    EENTRO =        -0.00581065
  eigenvalues    EBANDS =      -375.82681317
  atomic energy  EATOM  =      4856.42966544
  Solvation  Ediel_sol  =         0.00000000
  ---------------------------------------------------
  free energy    TOTEN  =       -11.89612021 eV

  energy without entropy =      -11.89030956  energy(sigma->0) =      -11.89321488


--------------------------------------------------------------------------------------------------------




--------------------------------------- Iteration      1(   9)  ---------------------------------------


    POTLOK:  cpu time      0.0033: real time      0.0034
    SETDIJ:  cpu time      0.0018: real time      0.0018
     EDDAV:  cpu time      0.4873: real time      0.4900
       DOS:  cpu time      0.0004: real time      0.0004
    CHARGE:  cpu time      0.0229: real time      0.0229
    MIXING:  cpu time      0.0003: real time      0.0003
    --------------------------------------------
      LOOP:  cpu time      0.5160: real time      0.5190

 eigenvalue-minimisations  :  4440
 total energy-change (2. order) : 0.9561239E-04  (-0.1318714E-04)
 number of electron      31.9999998 magnetization 
 augmentation part        8.2301334 magnetization 

 Broyden mixing:
  rms(total) = 0.24859E-02    rms(broyden)= 0.24825E-02
  rms(prec ) = 0.32194E-02
  weight for this iteration     100.00

 eigenvalues of (default mixing * dielectric matrix)
  average eigenvalue GAMMA=   1.6740
  2.5400  1.0366  1.1477  1.9716

 Free energy of the ion-electron system (eV)
  ---------------------------------------------------
  alpha Z        PSCENC =       280.56452492
  Ewald energy   TEWEN  =     -4130.22244714
  -Hartree energ DENC   =      -833.33885508
  -exchange      EXHF   =         0.00000000
  -V(xc)+E(xc)   XCENC  =       124.88674618
  PAW double counting   =      4440.43363004    -4374.93351675
  entropy T*S    EENTRO =        -0.00577761
  eigenvalues    EBANDS =      -375.70999460
  atomic energy  EATOM  =      4856.42966544
  Solvation  Ediel_sol  =         0.00000000
  ---------------------------------------------------
  free energy    TOTEN  =       -11.89602459 eV

  energy without entropy =      -11.89024698  energy(sigma->0) =      -11.89313579


--------------------------------------------------------------------------------------------------------




--------------------------------------- Iteration      1(  10)  ---------------------------------------


    POTLOK:  cpu time      0.0034: real time      0.0036
    SETDIJ:  cpu time      0.0019: real time      0.0019
     EDDAV:  cpu time      0.4418: real time      0.4441
       DOS:  cpu time      0.0004: real time      0.0004
    CHARGE:  cpu time      0.0223: real time      0.0224
    MIXING:  cpu time      0.0003: real time      0.0003
    --------------------------------------------
      LOOP:  cpu time      0.4702: real time      0.4727

 eigenvalue-minimisations  :  4176
 total energy-change (2. order) :-0.1729375E-04  (-0.1076549E-05)
 number of electron      31.9999998 magnetization 
 augmentation part        8.2302056 magnetization 

 Broyden mixing:
  rms(total) = 0.96634E-03    rms(broyden)= 0.96572E-03
  rms(prec ) = 0.11606E-02
  weight for this iteration     100.00

 eigenvalues of (default mixing * dielectric matrix)
  average eigenvalue GAMMA=   1.7018
  2.6679  2.3151  0.9893  1.1502  1.3866

 Free energy of the ion-electron system (eV)
  ---------------------------------------------------
  alpha Z        PSCENC =       280.56452492
  Ewald energy   TEWEN  =     -4130.22244714
  -Hartree energ DENC   =      -833.36809342
  -exchange      EXHF   =         0.00000000
  -V(xc)+E(xc)   XCENC  =       124.88764731
  PAW double counting   =      4442.60984702    -4377.07148107
  entropy T*S    EENTRO =        -0.00577167
  eigenvalues    EBANDS =      -375.71993328
  atomic energy  EATOM  =      4856.42966544
  Solvation  Ediel_sol  =         0.00000000
  ---------------------------------------------------
  free energy    TOTEN  =       -11.89604189 eV

  energy without entropy =      -11.89027021  energy(sigma->0) =      -11.89315605


--------------------------------------------------------------------------------------------------------




--------------------------------------- Iteration      1(  11)  ---------------------------------------


    POTLOK:  cpu time      0.0033: real time      0.0035
    SETDIJ:  cpu time      0.0018: real time      0.0018
     EDDAV:  cpu time      0.3956: real time      0.3979
       DOS:  cpu time      0.0004: real time      0.0004
    --------------------------------------------
      LOOP:  cpu time      0.4011: real time      0.4036

 eigenvalue-minimisations  :  3936
 total energy-change (2. order) : 0.5173479E-07  (-0.1516054E-06)
 number of electron      31.9999998 magnetization 
 augmentation part        8.2302056 magnetization 

 Free energy of the ion-electron system (eV)
  ---------------------------------------------------
  alpha Z        PSCENC =       280.56452492
  Ewald energy   TEWEN  =     -4130.22244714
  -Hartree energ DENC   =      -833.38081534
  -exchange      EXHF   =         0.00000000
  -V(xc)+E(xc)   XCENC  =       124.88816684
  PAW double counting   =      4443.08950501    -4377.53608471
  entropy T*S    EENTRO =        -0.00577283
  eigenvalues    EBANDS =      -375.72278403
  atomic energy  EATOM  =      4856.42966544
  Solvation  Ediel_sol  =         0.00000000
  ---------------------------------------------------
  free energy    TOTEN  =       -11.89604184 eV

  energy without entropy =      -11.89026900  energy(sigma->0) =      -11.89315542


--------------------------------------------------------------------------------------------------------




 average (electrostatic) potential at core
  the test charge radii are     0.9952
  (the norm of the test charge is              1.0000)
       1 -90.6729       2 -90.6729
 
 
 
 E-fermi :   9.6904     XC(G=0): -13.1965     alpha+bet :-15.3377

 Fermi energy:         9.6904290367

 k-point     1 :       0.0000    0.0000    0.0000
  band No.  band energies     occupation 
      1     -42.5926      2.00000
      2     -42.5040      2.00000
      3     -42.5040      2.00000
      4     -42.4738      2.00000
      5     -42.4738      2.00000
      6     -42.3508      2.00000
      7       0.8117      2.00000
      8       3.3846      2.00000
      9       6.2645      2.00000
     10       6.6978      2.00000
     11       6.6978      2.00000
     12       7.0165      2.00000
     13       7.0165      2.00000
     14       8.1291      2.00000
     15       8.1291      2.00000
     16       9.3504      2.00000
     17       9.5164      2.00000
     18       9.5164      2.00000
     19      13.9126      0.00000
     20      24.8729      0.00000
     21      25.3743      0.00000
     22      26.8967      0.00000
     23      29.8520      0.00000
     24      29.8520      0.00000

 k-point     2 :       0.1000    0.0000    0.0000
  band No.  band energies     occupation 
      1     -42.5843      2.00000
      2     -42.5308      2.00000
      3     -42.5119      2.00000
      4     -42.5010      2.00000
      5     -42.4795      2.00000
      6     -42.3525      2.00000
      7       1.1461      2.00000
      8       3.6842      2.00000
      9       6.2040      2.00000
     10       6.7120      2.00000
     11       6.8899      2.00000
     12       6.9418      2.00000
     13       7.2481      2.00000
     14       7.6663      2.00000
     15       7.9830      2.00000
     16       8.1616      2.00000
     17       9.5681      1.99946
     18      11.2604      0.00000
     19      13.8877      0.00000
     20      25.1486      0.00000
     21      25.8605      0.00000
     22      26.9490      0.00000
     23      28.4037      0.00000
     24      28.5218      0.00000

 k-point     3 :       0.2000    0.0000    0.0000
  band No.  band energies     occupation 
      1     -42.6003      2.00000
      2     -42.5718      2.00000
      3     -42.5606      2.00000
      4     -42.5318      2.00000
      5     -42.4947      2.00000
      6     -42.3592      2.00000
      7       2.0650      2.00000
      8       4.3526      2.00000
      9       6.0028      2.00000
     10       6.4618      2.00000
     11       6.4636      2.00000
     12       7.2605      2.00000
     13       7.6310      2.00000
     14       7.6555      2.00000
     15       7.6899      2.00000
     16       7.8964      2.00000
     17       9.6517      1.72697
     18      13.2780      0.00000
     19      13.8562      0.00000
     20      23.0810      0.00000
     21      26.0948      0.00000
     22      26.4461      0.00000
     23      27.2974      0.00000
     24      27.5595      0.00000

 k-point     4 :       0.3000   -0.0000    0.0000
  band No.  band energies     occupation 
      1     -42.6863      2.00000
      2     -42.6571      2.00000
      3     -42.5560      2.00000
      4     -42.5275      2.00000
      5     -42.5133      2.00000
      6     -42.3715      2.00000
      7       3.2178      2.00000
      8       4.5000      2.00000
      9       5.5201      2.00000
     10       6.2374      2.00000
     11       6.5458      2.00000
     12       7.2426      2.00000
     13       7.3151      2.00000
     14       8.2718      2.00000
     15       8.6135      2.00000
     16       8.8092      2.00000
     17       9.6973      0.84632
     18      14.0340      0.00000
     19      15.3580      0.00000
     20      19.4021      0.00000
     21      23.8646      0.00000
     22      24.8325      0.00000
     23      25.5628      0.00000
     24      27.1621      0.00000

 k-point     5 :       0.4000   -0.0000    0.0000
  band No.  band energies     occupation 
      1     -42.7557      2.00000
      2     -42.7245      2.00000
      3     -42.5752      2.00000
      4     -42.5286      2.00000
      5     -42.4938      2.00000
      6     -42.3884      2.00000
      7       3.8963      2.00000
      8       4.2227      2.00000
      9       4.9403      2.00000
     10       6.6970      2.00000
     11       6.9140      2.00000
     12       7.0714      2.00000
     13       7.2799      2.00000
     14       9.5466      1.99995
     15       9.6990      0.80947
     16       9.7077      0.62455
     17       9.9396      0.00000
     18      14.9184      0.00000
     19      15.8616      0.00000
     20      17.2501      0.00000
     21      21.3035      0.00000
     22      22.1172      0.00000
     23      23.3560      0.00000
     24      25.9374      0.00000

 k-point     6 :       0.5000    0.0000    0.0000
  band No.  band energies     occupation 
      1     -42.7822      2.00000
      2     -42.7504      2.00000
      3     -42.5819      2.00000
      4     -42.5344      2.00000
      5     -42.4765      2.00000
      6     -42.3985      2.00000
      7       4.0484      2.00000
      8       4.0642      2.00000
      9       4.7448      2.00000
     10       6.7946      2.00000
     11       6.9840      2.00000
     12       7.1538      2.00000
     13       7.4865      2.00000
     14       9.7077      0.62511
     15       9.9342      0.00000
     16      10.1090      0.00000
     17      11.8307      0.00000
     18      13.1639      0.00000
     19      16.5942      0.00000
     20      18.1951      0.00000
     21      18.4969      0.00000
     22      21.4173      0.00000
     23      22.6001      0.00000
     24      25.4404      0.00000

 k-point     7 :       0.1000    0.1000    0.0000
  band No.  band energies     occupation 
      1     -42.5740      2.00000
      2     -42.5681      2.00000
      3     -42.5547      2.00000
      4     -42.5216      2.00000
      5     -42.4932      2.00000
      6     -42.3569      2.00000
      7       1.7797      2.00000
      8       4.2094      2.00000
      9       5.9695      2.00000
     10       6.6332      2.00000
     11       6.8233      2.00000
     12       6.9104      2.00000
     13       7.4569      2.00000
     14       7.4859      2.00000
     15       7.7651      2.00000
     16       8.0519      2.00000
     17       9.5863      1.99676
     18      12.7410      0.00000
     19      13.8613      0.00000
     20      24.6925      0.00000
     21      24.9903      0.00000
     22      26.7014      0.00000
     23      27.6042      0.00000
     24      28.1157      0.00000

 k-point     8 :       0.2000    0.1000    0.0000
  band No.  band energies     occupation 
      1     -42.6462      2.00000
      2     -42.6272      2.00000
      3     -42.5495      2.00000
      4     -42.5397      2.00000
      5     -42.5158      2.00000
      6     -42.3666      2.00000
      7       2.8791      2.00000
      8       4.7884      2.00000
      9       5.8103      2.00000
     10       5.8853      2.00000
     11       6.3942      2.00000
     12       7.0579      2.00000
     13       7.4466      2.00000
     14       7.7307      2.00000
     15       8.3848      2.00000
     16       8.7320      2.00000
     17       9.5869      1.99660
     18      13.9507      0.00000
     19      14.6864      0.00000
     20      21.2646      0.00000
     21      23.1905      0.00000
     22      25.7914      0.00000
     23      27.4976      0.00000
     24      27.6825      0.00000

 k-point     9 :       0.3000    0.1000    0.0000
  band No.  band energies     occupation 
      1     -42.7211      2.00000
      2     -42.6951      2.00000
      3     -42.5780      2.00000
      4     -42.5369      2.00000
      5     -42.5056      2.00000
      6     -42.3819      2.00000
      7       3.9096      2.00000
      8       4.5958      2.00000
      9       5.1983      2.00000
     10       6.2483      2.00000
     11       6.7919      2.00000
     12       6.7989      2.00000
     13       7.3030      2.00000
     14       8.4089      2.00000
     15       9.3262      2.00000
     16       9.5759      1.99880
     17       9.9860      0.00000
     18      14.5750      0.00000
     19      16.7055      0.00000
     20      17.5705      0.00000
     21      21.1998      0.00000
     22      23.9693      0.00000
     23      24.2651      0.00000
     24      26.2777      0.00000

 k-point    10 :       0.4000    0.1000    0.0000
  band No.  band energies     occupation 
      1     -42.7675      2.00000
      2     -42.7366      2.00000
      3     -42.5960      2.00000
      4     -42.5500      2.00000
      5     -42.4770      2.00000
      6     -42.3983      2.00000
      7       4.2590      2.00000
      8       4.3494      2.00000
      9       4.8433      2.00000
     10       6.7511      2.00000
     11       6.9504      2.00000
     12       6.9567      2.00000
     13       7.2440      2.00000
     14       9.4787      2.00000
     15       9.5613      1.99974
     16       9.8003      0.00189
     17      11.5532      0.00000
     18      14.3172      0.00000
     19      16.2174      0.00000
     20      18.3312      0.00000
     21      18.9905      0.00000
     22      21.2994      0.00000
     23      23.0210      0.00000
     24      25.3388      0.00000

 k-point    11 :       0.2000    0.2000    0.0000
  band No.  band energies     occupation 
      1     -42.6883      2.00000
      2     -42.6883      2.00000
      3     -42.5823      2.00000
      4     -42.5524      2.00000
      5     -42.5098      2.00000
      6     -42.3796      2.00000
      7       4.0220      2.00000
      8       5.3419      2.00000
      9       5.3783      2.00000
     10       5.4139      2.00000
     11       6.5806      2.00000
     12       6.6325      2.00000
     13       7.4738      2.00000
     14       7.7642      2.00000
     15       9.3152      2.00000
     16       9.4338      2.00000
     17      10.0577      0.00000
     18      14.5243      0.00000
     19      16.5652      0.00000
     20      19.0189      0.00000
     21      19.9461      0.00000
     22      25.0134      0.00000
     23      25.6352      0.00000
     24      26.3150      0.00000

 k-point    12 :       0.3000    0.2000    0.0000
  band No.  band energies     occupation 
      1     -42.7340      2.00000
      2     -42.7132      2.00000
      3     -42.6198      2.00000
      4     -42.5846      2.00000
      5     -42.4778      2.00000
      6     -42.3977      2.00000
      7       4.7939      2.00000
      8       5.0400      2.00000
      9       5.0401      2.00000
     10       6.0553      2.00000
     11       6.5049      2.00000
     12       7.0502      2.00000
     13       7.0714      2.00000
     14       8.4556      2.00000
     15       9.3166      2.00000
     16       9.6935      0.93128
     17      11.5676      0.00000
     18      15.4816      0.00000
     19      16.4818      0.00000
     20      18.1301      0.00000
     21      18.5446      0.00000
     22      22.6650      0.00000
     23      24.0155      0.00000
     24      24.9275      0.00000

 k-point    13 :       0.4000    0.2000    0.0000
  band No.  band energies     occupation 
      1     -42.7504      2.00000
      2     -42.7193      2.00000
      3     -42.6380      2.00000
      4     -42.5964      2.00000
      5     -42.4591      2.00000
      6     -42.4102      2.00000
      7       4.9062      2.00000
      8       4.9154      2.00000
      9       4.9222      2.00000
     10       6.5741      2.00000
     11       6.6242      2.00000
     12       6.7224      2.00000
     13       7.3094      2.00000
     14       9.1184      2.00000
     15       9.2738      2.00000
     16       9.5252      2.00000
     17      13.1295      0.00000
     18      13.5289      0.00000
     19      16.8562      0.00000
     20      18.2807      0.00000
     21      19.7257      0.00000
     22      20.5546      0.00000
     23      23.0128      0.00000
     24      24.5968      0.00000

 k-point    14 :       0.3000    0.3000    0.0000
  band No.  band energies     occupation 
      1     -42.7243      2.00000
      2     -42.7003      2.00000
      3     -42.6657      2.00000
      4     -42.6349      2.00000
      5     -42.4486      2.00000
      6     -42.4182      2.00000
      7       5.0078      2.00000
      8       5.3176      2.00000
      9       5.5562      2.00000
     10       5.9557      2.00000
     11       6.4641      2.00000
     12       6.7009      2.00000
     13       7.3882      2.00000
     14       8.7690      2.00000
     15       9.1316      2.00000
     16       9.3886      2.00000
     17      13.0875      0.00000
     18      14.3488      0.00000
     19      15.7901      0.00000
     20      18.9962      0.00000
     21      20.5654      0.00000
     22      21.6495      0.00000
     23      22.3782      0.00000
     24      22.8882      0.00000

 k-point    15 :       0.0000    0.0000    0.1250
  band No.  band energies     occupation 
      1     -42.5838      2.00000
      2     -42.5032      2.00000
      3     -42.5032      2.00000
      4     -42.4748      2.00000
      5     -42.4748      2.00000
      6     -42.3597      2.00000
      7       0.9358      2.00000
      8       3.3603      2.00000
      9       6.2360      2.00000
     10       6.6803      2.00000
     11       6.6803      2.00000
     12       6.9829      2.00000
     13       6.9829      2.00000
     14       8.2151      2.00000
     15       8.2151      2.00000
     16       8.7263      2.00000
     17       9.4910      2.00000
     18       9.4910      2.00000
     19      14.7854      0.00000
     20      24.4151      0.00000
     21      25.8025      0.00000
     22      26.6322      0.00000
     23      29.5109      0.00000
     24      29.5109      0.00000

 k-point    16 :       0.1000    0.0000    0.1250
  band No.  band energies     occupation 
      1     -42.5768      2.00000
      2     -42.5285      2.00000
      3     -42.5108      2.00000
      4     -42.5025      2.00000
      5     -42.4806      2.00000
      6     -42.3609      2.00000
      7       1.2680      2.00000
      8       3.6660      2.00000
      9       6.2071      2.00000
     10       6.6370      2.00000
     11       6.8034      2.00000
     12       6.9166      2.00000
     13       7.2108      2.00000
     14       7.6355      2.00000
     15       8.0842      2.00000
     16       8.1331      2.00000
     17       9.5338      1.99999
     18      10.6926      0.00000
     19      14.8901      0.00000
     20      24.8077      0.00000
     21      26.1182      0.00000
     22      26.8309      0.00000
     23      27.9923      0.00000
     24      28.3877      0.00000

 k-point    17 :       0.2000    0.0000    0.1250
  band No.  band energies     occupation 
      1     -42.6027      2.00000
      2     -42.5742      2.00000
      3     -42.5491      2.00000
      4     -42.5306      2.00000
      5     -42.4961      2.00000
      6     -42.3662      2.00000
      7       2.1740      2.00000
      8       4.3564      2.00000
      9       6.0311      2.00000
     10       6.2184      2.00000
     11       6.4810      2.00000
     12       7.1696      2.00000
     13       7.4908      2.00000
     14       7.7915      2.00000
     15       7.8646      2.00000
     16       7.9434      2.00000
     17       9.5992      1.99015
     18      12.0639      0.00000
     19      15.3533      0.00000
     20      23.1849      0.00000
     21      26.1703      0.00000
     22      26.2484      0.00000
     23      26.7899      0.00000
     24      27.8765      0.00000

 k-point    18 :       0.3000   -0.0000    0.1250
  band No.  band energies     occupation 
      1     -42.6871      2.00000
      2     -42.6592      2.00000
      3     -42.5543      2.00000
      4     -42.5194      2.00000
      5     -42.5149      2.00000
      6     -42.3763      2.00000
      7       3.2739      2.00000
      8       4.5230      2.00000
      9       5.4965      2.00000
     10       6.0956      2.00000
     11       6.5709      2.00000
     12       7.3326      2.00000
     13       7.3692      2.00000
     14       8.3188      2.00000
     15       8.6329      2.00000
     16       8.7676      2.00000
     17       9.6366      1.87247
     18      13.0613      0.00000
     19      16.3865      0.00000
     20      19.6522      0.00000
     21      24.0833      0.00000
     22      24.2186      0.00000
     23      25.7237      0.00000
     24      27.5376      0.00000

 k-point    19 :       0.4000   -0.0000    0.1250
  band No.  band energies     occupation 
      1     -42.7561      2.00000
      2     -42.7274      2.00000
      3     -42.5731      2.00000
      4     -42.5302      2.00000
      5     -42.4876      2.00000
      6     -42.3905      2.00000
      7       3.8452      2.00000
      8       4.2336      2.00000
      9       5.0688      2.00000
     10       6.1430      2.00000
     11       7.0909      2.00000
     12       7.1465      2.00000
     13       7.7835      2.00000
     14       9.4829      2.00000
     15       9.5610      1.99975
     16       9.7857      0.00707
     17       9.8614      0.00000
     18      14.1244      0.00000
     19      15.8997      0.00000
     20      18.0251      0.00000
     21      21.0511      0.00000
     22      22.3662      0.00000
     23      23.6636      0.00000
     24      26.1581      0.00000

 k-point    20 :       0.5000    0.0000    0.1250
  band No.  band energies     occupation 
      1     -42.7826      2.00000
      2     -42.7532      2.00000
      3     -42.5804      2.00000
      4     -42.5360      2.00000
      5     -42.4720      2.00000
      6     -42.3998      2.00000
      7       3.9377      2.00000
      8       4.0735      2.00000
      9       4.9324      2.00000
     10       6.2033      2.00000
     11       7.0636      2.00000
     12       7.2236      2.00000
     13       8.1972      2.00000
     14       9.5557      1.99986
     15       9.9524      0.00000
     16      10.1033      0.00000
     17      11.6384      0.00000
     18      13.0783      0.00000
     19      16.4266      0.00000
     20      17.0556      0.00000
     21      19.8828      0.00000
     22      21.6774      0.00000
     23      22.7474      0.00000
     24      25.7017      0.00000

 k-point    21 :       0.1000    0.1000    0.1250
  band No.  band energies     occupation 
      1     -42.5805      2.00000
      2     -42.5558      2.00000
      3     -42.5529      2.00000
      4     -42.5211      2.00000
      5     -42.4944      2.00000
      6     -42.3642      2.00000
      7       1.8947      2.00000
      8       4.2058      2.00000
      9       5.9969      2.00000
     10       6.4032      2.00000
     11       6.7149      2.00000
     12       6.9302      2.00000
     13       7.3982      2.00000
     14       7.5951      2.00000
     15       7.8491      2.00000
     16       8.1091      2.00000
     17       9.5416      1.99997
     18      11.7470      0.00000
     19      15.1810      0.00000
     20      24.6979      0.00000
     21      25.0736      0.00000
     22      26.4692      0.00000
     23      27.1419      0.00000
     24      28.3763      0.00000

 k-point    22 :       0.2000    0.1000    0.1250
  band No.  band energies     occupation 
      1     -42.6477      2.00000
      2     -42.6289      2.00000
      3     -42.5487      2.00000
      4     -42.5307      2.00000
      5     -42.5167      2.00000
      6     -42.3721      2.00000
      7       2.9670      2.00000
      8       4.8162      2.00000
      9       5.7175      2.00000
     10       5.8700      2.00000
     11       6.3752      2.00000
     12       6.9627      2.00000
     13       7.5846      2.00000
     14       7.7147      2.00000
     15       8.4827      2.00000
     16       8.6868      2.00000
     17       9.5427      1.99997
     18      12.7957      0.00000
     19      16.0215      0.00000
     20      21.4339      0.00000
     21      23.3127      0.00000
     22      25.5874      0.00000
     23      26.7537      0.00000
     24      28.3833      0.00000

 k-point    23 :       0.3000    0.1000    0.1250
  band No.  band energies     occupation 
      1     -42.7218      2.00000
      2     -42.6973      2.00000
      3     -42.5770      2.00000
      4     -42.5388      2.00000
      5     -42.4982      2.00000
      6     -42.3849      2.00000
      7       3.9062      2.00000
      8       4.6260      2.00000
      9       5.2460      2.00000
     10       6.0098      2.00000
     11       6.7596      2.00000
     12       7.1023      2.00000
     13       7.3155      2.00000
     14       8.4237      2.00000
     15       9.3668      2.00000
     16       9.4166      2.00000
     17      10.0345      0.00000
     18      13.8441      0.00000
     19      16.9151      0.00000
     20      18.3192      0.00000
     21      21.2724      0.00000
     22      23.3317      0.00000
     23      24.7869      0.00000
     24      26.3864      0.00000

 k-point    24 :       0.4000    0.1000    0.1250
  band No.  band energies     occupation 
      1     -42.7679      2.00000
      2     -42.7394      2.00000
      3     -42.5944      2.00000
      4     -42.5518      2.00000
      5     -42.4722      2.00000
      6     -42.3993      2.00000
      7       4.1438      2.00000
      8       4.3590      2.00000
      9       5.0564      2.00000
     10       6.1489      2.00000
     11       6.8389      2.00000
     12       7.3325      2.00000
     13       7.7165      2.00000
     14       9.3820      2.00000
     15       9.4833      2.00000
[...]
      1     -42.6815      2.00000
      2     -42.6815      2.00000
      3     -42.5349      2.00000
      4     -42.5349      2.00000
      5     -42.4390      2.00000
      6     -42.4390      2.00000
      7       4.0513      2.00000
      8       4.0513      2.00000
      9       5.4873      2.00000
     10       5.4873      2.00000
     11       7.1330      2.00000
     12       7.1330      2.00000
     13       8.0519      2.00000
     14       8.0519      2.00000
     15       9.0690      2.00000
     16       9.0690      2.00000
     17       9.6624      1.57223
     18       9.6624      1.57216
     19      20.4684      0.00000
     20      20.4684      0.00000
     21      23.2854      0.00000
     22      23.2854      0.00000
     23      26.9065      0.00000
     24      26.9065      0.00000

 k-point    61 :       0.4000   -0.0000    0.5000
  band No.  band energies     occupation 
      1     -42.7507      2.00000
      2     -42.7507      2.00000
      3     -42.5520      2.00000
      4     -42.5520      2.00000
      5     -42.4300      2.00000
      6     -42.4300      2.00000
      7       3.9961      2.00000
      8       3.9961      2.00000
      9       5.2506      2.00000
     10       5.2506      2.00000
     11       8.1542      2.00000
     12       8.1542      2.00000
     13       8.5303      2.00000
     14       8.5303      2.00000
     15       9.6981      0.82834
     16       9.6981      0.82826
     17      10.3770      0.00000
     18      10.3770      0.00000
     19      17.4750      0.00000
     20      17.4750      0.00000
     21      23.3943      0.00000
     22      23.3943      0.00000
     23      25.3438      0.00000
     24      25.3438      0.00000

 k-point    62 :       0.5000    0.0000    0.5000
  band No.  band energies     occupation 
      1     -42.7766      2.00000
      2     -42.7766      2.00000
      3     -42.5583      2.00000
      4     -42.5583      2.00000
      5     -42.4264      2.00000
      6     -42.4264      2.00000
      7       3.9227      2.00000
      8       3.9227      2.00000
      9       5.1579      2.00000
     10       5.1579      2.00000
     11       8.1410      2.00000
     12       8.1411      2.00000
     13       9.0276      2.00000
     14       9.0276      2.00000
     15      10.0356      0.00000
     16      10.0356      0.00000
     17      11.4509      0.00000
     18      11.4509      0.00000
     19      15.5729      0.00000
     20      15.5729      0.00000
     21      23.4888      0.00000
     22      23.4888      0.00000
     23      24.6898      0.00000
     24      24.6898      0.00000

 k-point    63 :       0.1000    0.1000    0.5000
  band No.  band energies     occupation 
      1     -42.5715      2.00000
      2     -42.5715      2.00000
      3     -42.5102      2.00000
      4     -42.5102      2.00000
      5     -42.4533      2.00000
      6     -42.4533      2.00000
      7       3.3472      2.00000
      8       3.3472      2.00000
      9       5.8539      2.00000
     10       5.8539      2.00000
     11       6.4383      2.00000
     12       6.4383      2.00000
     13       7.3562      2.00000
     14       7.3562      2.00000
     15       8.8901      2.00000
     16       8.8901      2.00000
     17       9.2729      2.00000
     18       9.2729      2.00000
     19      21.5753      0.00000
     20      21.5753      0.00000
     21      25.6527      0.00000
     22      25.6527      0.00000
     23      26.2985      0.00000
     24      26.2985      0.00000

 k-point    64 :       0.2000    0.1000    0.5000
  band No.  band energies     occupation 
      1     -42.6454      2.00000
      2     -42.6454      2.00000
      3     -42.5349      2.00000
      4     -42.5349      2.00000
      5     -42.4420      2.00000
      6     -42.4420      2.00000
      7       4.1017      2.00000
      8       4.1017      2.00000
      9       5.6454      2.00000
     10       5.6454      2.00000
     11       6.3779      2.00000
     12       6.3779      2.00000
     13       7.9151      2.00000
     14       7.9151      2.00000
     15       9.0556      2.00000
     16       9.0556      2.00000
     17       9.5772      1.99864
     18       9.5772      1.99864
     19      21.5503      0.00000
     20      21.5503      0.00000
     21      23.6604      0.00000
     22      23.6604      0.00000
     23      25.3745      0.00000
     24      25.3745      0.00000

 k-point    65 :       0.3000    0.1000    0.5000
  band No.  band energies     occupation 
      1     -42.7176      2.00000
      2     -42.7176      2.00000
      3     -42.5593      2.00000
      4     -42.5593      2.00000
      5     -42.4314      2.00000
      6     -42.4314      2.00000
      7       4.2704      2.00000
      8       4.2704      2.00000
      9       5.4480      2.00000
     10       5.4480      2.00000
     11       7.2529      2.00000
     12       7.2529      2.00000
     13       8.0213      2.00000
     14       8.0214      2.00000
     15       9.6050      1.98426
     16       9.6051      1.98426
     17      10.3772      0.00000
     18      10.3772      0.00000
     19      19.0821      0.00000
     20      19.0821      0.00000
     21      23.2849      0.00000
     22      23.2849      0.00000
     23      24.3446      0.00000
     24      24.3446      0.00000

 k-point    66 :       0.4000    0.1000    0.5000
  band No.  band energies     occupation 
      1     -42.7623      2.00000
      2     -42.7623      2.00000
      3     -42.5746      2.00000
      4     -42.5746      2.00000
      5     -42.4254      2.00000
      6     -42.4254      2.00000
      7       4.1658      2.00000
      8       4.1658      2.00000
      9       5.2971      2.00000
     10       5.2971      2.00000
     11       7.6930      2.00000
     12       7.6931      2.00000
     13       8.6590      2.00000
     14       8.6590      2.00000
     15       9.6868      1.08129
     16       9.6868      1.08119
     17      11.9761      0.00000
     18      11.9761      0.00000
     19      16.2247      0.00000
     20      16.2247      0.00000
     21      23.0680      0.00000
     22      23.0680      0.00000
     23      23.9462      0.00000
     24      23.9462      0.00000

 k-point    67 :       0.2000    0.2000    0.5000
  band No.  band energies     occupation 
      1     -42.6959      2.00000
      2     -42.6959      2.00000
      3     -42.5724      2.00000
      4     -42.5724      2.00000
      5     -42.4314      2.00000
      6     -42.4314      2.00000
      7       4.5953      2.00000
      8       4.5953      2.00000
      9       5.7616      2.00000
     10       5.7616      2.00000
     11       6.2805      2.00000
     12       6.2805      2.00000
     13       7.8065      2.00000
     14       7.8065      2.00000
     15       9.6855      1.10994
     16       9.6855      1.10983
     17      10.4733      0.00000
     18      10.4733      0.00000
     19      20.3050      0.00000
     20      20.3050      0.00000
     21      22.3408      0.00000
     22      22.3408      0.00000
     23      24.0496      0.00000
     24      24.0496      0.00000

 k-point    68 :       0.3000    0.2000    0.5000
  band No.  band energies     occupation 
      1     -42.7314      2.00000
      2     -42.7314      2.00000
      3     -42.6076      2.00000
      4     -42.6076      2.00000
      5     -42.4234      2.00000
      6     -42.4234      2.00000
      7       4.6968      2.00000
      8       4.6968      2.00000
      9       5.6746      2.00000
     10       5.6746      2.00000
     11       6.8285      2.00000
     12       6.8285      2.00000
     13       7.7529      2.00000
     14       7.7529      2.00000
     15       9.7486      0.09991
     16       9.7486      0.09988
     17      12.3781      0.00000
     18      12.3781      0.00000
     19      17.6855      0.00000
     20      17.6855      0.00000
     21      21.0053      0.00000
     22      21.0053      0.00000
     23      24.5522      0.00000
     24      24.5522      0.00000

 k-point    69 :       0.4000    0.2000    0.5000
  band No.  band energies     occupation 
      1     -42.7440      2.00000
      2     -42.7440      2.00000
      3     -42.6222      2.00000
      4     -42.6222      2.00000
      5     -42.4206      2.00000
      6     -42.4206      2.00000
      7       4.6933      2.00000
      8       4.6933      2.00000
      9       5.6146      2.00000
     10       5.6146      2.00000
     11       6.9168      2.00000
     12       6.9168      2.00000
     13       8.1273      2.00000
     14       8.1273      2.00000
     15       9.6246      1.93753
     16       9.6246      1.93751
     17      14.0374      0.00000
     18      14.0374      0.00000
     19      15.7046      0.00000
     20      15.7046      0.00000
     21      20.4551      0.00000
     22      20.4551      0.00000
     23      24.9820      0.00000
     24      24.9820      0.00000

 k-point    70 :       0.3000    0.3000    0.5000
  band No.  band energies     occupation 
      1     -42.7169      2.00000
      2     -42.7169      2.00000
      3     -42.6611      2.00000
      4     -42.6611      2.00000
      5     -42.4187      2.00000
      6     -42.4187      2.00000
      7       5.1097      2.00000
      8       5.1097      2.00000
      9       5.8502      2.00000
     10       5.8502      2.00000
     11       6.5178      2.00000
     12       6.5178      2.00000
     13       7.6459      2.00000
     14       7.6459      2.00000
     15       9.6106      1.97606
     16       9.6106      1.97606
     17      14.6691      0.00000
     18      14.6691      0.00000
     19      16.5168      0.00000
     20      16.5168      0.00000
     21      18.6673      0.00000
     22      18.6673      0.00000
     23      25.9203      0.00000
     24      25.9203      0.00000


--------------------------------------------------------------------------------------------------------


 soft charge-density along one line, spin component           1
         0         1         2         3         4         5         6         7         8         9
 total charge-density along one line
 
 pseudopotential strength for first ion, spin component:           1
-32.109  -0.000   0.000  11.164   0.000  -0.000  -0.000  -0.000
 -0.000 -32.048  -0.000   0.000  11.103   0.000   0.000   0.000
  0.000  -0.000 -32.109  -0.000   0.000  11.164  -0.000   0.000
 11.164   0.000  -0.000  16.079  -0.000   0.000   0.000   0.000
  0.000  11.103   0.000  -0.000  16.101  -0.000  -0.000  -0.000
 -0.000   0.000  11.164   0.000  -0.000  16.079   0.000  -0.000
 -0.000   0.000  -0.000   0.000  -0.000   0.000  -4.001   0.000
 -0.000   0.000   0.000   0.000  -0.000  -0.000   0.000  -3.959
 -0.000  -0.000   0.000   0.000   0.000  -0.000  -0.000   0.000
  0.000  -0.000   0.000  -0.000   0.000  -0.000  -0.000   0.000
 -0.000   0.000  -0.000   0.000  -0.000   0.000  -0.000   0.000
 -0.000   0.000  -0.000   0.000  -0.000   0.000  -4.265   0.000
 -0.000   0.000   0.000   0.000  -0.000  -0.000   0.000  -4.218
 -0.000  -0.000   0.000   0.000   0.000  -0.000  -0.000   0.000
  0.000  -0.000   0.000  -0.000   0.000  -0.000  -0.000   0.000
 -0.000   0.000  -0.000   0.000  -0.000   0.000  -0.000   0.000
 -0.000   0.000   0.000  -0.000   0.000   0.000  -0.000   0.000
  0.000  -0.000  -0.000   0.000  -0.000  -0.000   0.000  -0.000
 total augmentation occupancy for first ion, spin component:           1
  2.002  -0.000  -0.000  -0.020   0.000   0.000   0.000   0.000  -0.000   0.000   0.004  -0.000   0.000   0.000   0.000  -0.003
 -0.000   2.002   0.000   0.000  -0.018  -0.000   0.000   0.000   0.000   0.000   0.000   0.000  -0.000   0.000   0.000  -0.000
 -0.000   0.000   2.002   0.000   0.000  -0.020   0.004   0.000   0.000   0.000   0.000  -0.003   0.000  -0.000  -0.000  -0.000
 -0.020  -0.000   0.000   0.042   0.000   0.000  -0.000   0.000   0.000   0.000  -0.021   0.000   0.000  -0.000   0.000   0.020
  0.000  -0.018   0.000   0.000   0.035   0.000   0.000  -0.000   0.000  -0.000  -0.000   0.000  -0.000   0.000   0.000   0.000
  0.000   0.000  -0.020   0.000   0.000   0.042  -0.021   0.000  -0.000  -0.000  -0.000   0.020   0.000   0.000   0.000   0.000
  0.000  -0.000   0.004  -0.000  -0.000  -0.021   4.152   0.000   0.000   0.000   0.000  -2.057  -0.000  -0.000  -0.000  -0.000
 -0.000  -0.000   0.000  -0.000   0.000   0.000  -0.000   3.530  -0.000   0.000   0.000   0.000  -1.710   0.000  -0.000   0.000
 -0.000   0.000   0.000   0.000   0.000  -0.000   0.000   0.000   4.200   0.000  -0.000  -0.000   0.000  -2.100   0.000   0.000
  0.000   0.000   0.000   0.000  -0.000   0.000   0.000   0.000  -0.000   3.530  -0.000   0.000   0.000   0.000  -1.710  -0.000
  0.004   0.000   0.000  -0.021  -0.000  -0.000   0.000  -0.000  -0.000   0.000   4.152  -0.000  -0.000   0.000   0.000  -2.057
 -0.000   0.000  -0.003   0.000   0.000   0.020  -2.057   0.000  -0.000  -0.000  -0.000   1.675   0.000   0.000   0.000   0.000
 -0.000   0.000   0.000  -0.000   0.000  -0.000  -0.000  -1.710   0.000   0.000  -0.000  -0.000   1.718   0.000  -0.000   0.000
  0.000   0.000  -0.000  -0.000   0.000   0.000  -0.000   0.000  -2.100   0.000   0.000   0.000  -0.000   1.699  -0.000  -0.000
  0.000  -0.000   0.000   0.000   0.000   0.000   0.000   0.000   0.000  -1.710   0.000   0.000  -0.000   0.000   1.718   0.000
 -0.003  -0.000  -0.000   0.020   0.000   0.000  -0.000   0.000   0.000  -0.000  -2.057   0.000  -0.000  -0.000  -0.000   1.675
  0.000   0.000  -0.000   0.000   0.000   0.000  -0.000   0.000  -0.186   0.000   0.000   0.000   0.000   0.171   0.000  -0.000
 -0.000   0.000   0.000   0.000   0.000   0.000  -0.000   0.000   0.004   0.000   0.000   0.000  -0.000   0.001   0.000  -0.000


------------------------ aborting loop because EDIFF is reached ----------------------------------------





 total charge

# of ion       s       p       d       tot
------------------------------------------
    1        0.318   6.056   7.054  13.428
    2        0.318   6.056   7.054  13.428
--------------------------------------------------
tot          0.636  12.113  14.108  26.856
 
    CHARGE:  cpu time      0.0220: real time      0.0221
    FORLOC:  cpu time      0.0003: real time      0.0003
    FORNL :  cpu time      0.0173: real time      0.0173
    STRESS:  cpu time      0.1933: real time      0.1941
    FORCOR:  cpu time      0.0030: real time      0.0030
    FORHAR:  cpu time      0.0006: real time      0.0006
    MIXING:  cpu time      0.0002: real time      0.0002
    OFIELD:  cpu time      0.0000: real time      0.0000

  FORCE on cell =-STRESS in cart. coord.  units (eV):
  Direction    XX          YY          ZZ          XY          YZ          ZX
  --------------------------------------------------------------------------------------
  Alpha Z   280.56452   280.56452   280.56452
  Ewald   -1339.71264 -1339.71264 -1450.79911     0.00000     0.00000    -0.00000
  Hartree   294.90672   294.90672   243.56779    -0.00000    -0.00000    -0.00000
  E(xc)    -170.18376  -170.18377  -170.41216    -0.00000    -0.00000    -0.00000
  Local     155.31811   155.31811   306.56052    -0.00000    -0.00000    -0.00000
  n-local   -62.38510   -64.54347   -65.40990   -12.64795     3.47245     3.31979
  augment   145.63174   145.63173   148.98520    -0.00001    -0.00000    -0.00000
  Kinetic   696.10134   689.89239   703.49605   -15.74247     3.33714     1.06354
  Fock        0.00000     0.00000     0.00000     0.00000     0.00000     0.00000
  -------------------------------------------------------------------------------------
  Total      -3.94273    -3.94273    -3.44708     0.00000     0.00000    -0.00000
  in kB    -184.66848  -184.66848  -161.45327     0.00000     0.00000    -0.00000
  external pressure =     -176.93 kB  Pullay stress =        0.00 kB


 VOLUME and BASIS-vectors are now :
 -----------------------------------------------------------------------------
  energy-cutoff  :      450.00
  volume of cell :       34.21
      direct lattice vectors                 reciprocal lattice vectors
     2.835561286  0.000000000  0.000000000     0.352663864  0.203610577  0.000000000
    -1.417780643  2.455668107  0.000000000     0.000000000  0.407221154  0.000000000
     0.000000000  0.000000000  4.912543845     0.000000000  0.000000000  0.203560524

  length of vectors
     2.835561286  2.835561286  4.912543845     0.407221154  0.407221154  0.203560524


 FORCES acting on ions
    electron-ion (+dipol)            ewald-force                    non-local-force                 convergence-correction
 -----------------------------------------------------------------------------------------------
   -.421E-06 0.243E-06 0.110E-12   0.170E-11 -.949E-12 -.646E-13   0.104E-16 -.278E-16 0.000E+00   -.138E-07 0.794E-08 -.157E-12
   0.504E-06 -.291E-06 -.306E-11   -.170E-11 0.948E-12 0.646E-13   -.139E-16 0.278E-16 0.000E+00   0.138E-07 -.795E-08 -.114E-12
 -----------------------------------------------------------------------------------------------
   0.824E-07 -.476E-07 -.295E-11   -.426E-14 -.136E-14 0.000E+00   -.347E-17 0.000E+00 0.000E+00   0.130E-10 -.744E-11 -.271E-12
 
 
 POSITION                                       TOTAL-FORCE (eV/Angst)
 -----------------------------------------------------------------------------------
      0.00000      0.00000      0.00000        -0.000000      0.000000      0.000000
      0.00000      1.63711      2.45627         0.000000     -0.000000      0.000000
 -----------------------------------------------------------------------------------
    total drift:                                0.000000     -0.000000     -0.000000


--------------------------------------------------------------------------------------------------------



  FREE ENERGIE OF THE ION-ELECTRON SYSTEM (eV)
  ---------------------------------------------------
  free  energy   TOTEN  =       -11.89604184 eV

  energy  without entropy=      -11.89026900  energy(sigma->0) =      -11.89315542
 


--------------------------------------------------------------------------------------------------------


    POTLOK:  cpu time      0.0054: real time      0.0055


--------------------------------------------------------------------------------------------------------




--------------------------------------------------------------------------------------------------------


  
 reached required accuracy - stopping structural energy minimisation
 writing wavefunctions
     LOOP+:  cpu time      5.2951: real time      5.4295
    4ORBIT:  cpu time      0.0000: real time      0.0000



 total charge

# of ion       s       p       d       tot
------------------------------------------
    1        0.318   6.056   7.054  13.428
    2        0.318   6.056   7.054  13.428
--------------------------------------------------
tot          0.636  12.113  14.108  26.856
 

 total amount of memory used by VASP MPI-rank0    39828. kBytes
=======================================================================

   base      :      30000. kBytes
   nonl-proj :       7766. kBytes
   fftplans  :        254. kBytes
   grid      :        864. kBytes
   one-center:         31. kBytes
   wavefun   :        913. kBytes
 
  
  
 General timing and accounting informations for this job:
 ========================================================
  
                  Total CPU time used (sec):        6.221
                            User time (sec):        5.693
                          System time (sec):        0.529
                         Elapsed time (sec):        7.705
  
                   Maximum memory used (kb):      239660.
                   Average memory used (kb):          N/A
  
                          Minor page faults:        29917
                          Major page faults:           70
                 Voluntary context switches:         2982
