PROCAR lm decomposed
# of k-points:   70         # of bands:   24         # of ions:    2

 k-point     1 :    0.00000000 0.00000000 0.00000000     weight = 0.00125000

band     1 # energy  -42.59257014 # occ.  2.00000000
 
ion      s     py     pz     px    dxy    dyz    dz2    dxz  x2-y2    tot
    1  0.000  0.000  0.493  0.000  0.000  0.000  0.000  0.000  0.000  0.493
    2  0.000  0.000  0.493  0.000  0.000  0.000  0.000  0.000  0.000  0.493
tot    0.000  0.000  0.985  0.000  0.000  0.000  0.000  0.000  0.000  0.985
 
band     2 # energy  -42.50403259 # occ.  2.00000000
 
ion      s     py     pz     px    dxy    dyz    dz2    dxz  x2-y2    tot
    1  0.000  0.124  0.000  0.373  0.000  0.000  0.000  0.000  0.000  0.497
    2  0.000  0.124  0.000  0.373  0.000  0.000  0.000  0.000  0.000  0.497
tot    0.000  0.249  0.000  0.746  0.000  0.000  0.000  0.000  0.000  0.995
 
band     3 # energy  -42.50403167 # occ.  2.00000000
 
ion      s     py     pz     px    dxy    dyz    dz2    dxz  x2-y2    tot
    1  0.000  0.373  0.000  0.124  0.000  0.000  0.000  0.000  0.000  0.497
    2  0.000  0.373  0.000  0.124  0.000  0.000  0.000  0.000  0.000  0.497
tot    0.000  0.746  0.000  0.249  0.000  0.000  0.000  0.000  0.000  0.995
 
band     4 # energy  -42.47384757 # occ.  2.00000000
 
ion      s     py     pz     px    dxy    dyz    dz2    dxz  x2-y2    tot
    1  0.000  0.124  0.000  0.373  0.000  0.000  0.000  0.000  0.000  0.498
    2  0.000  0.124  0.000  0.373  0.000  0.000  0.000  0.000  0.000  0.498
tot    0.000  0.249  0.000  0.747  0.000  0.000  0.000  0.000  0.000  0.996
 
band     5 # energy  -42.47384665 # occ.  2.00000000
 
ion      s     py     pz     px    dxy    dyz    dz2    dxz  x2-y2    tot
    1  0.000  0.373  0.000  0.124  0.000  0.000  0.000  0.000  0.000  0.498
    2  0.000  0.373  0.000  0.124  0.000  0.000  0.000  0.000  0.000  0.498
tot    0.000  0.747  0.000  0.249  0.000  0.000  0.000  0.000  0.000  0.996
 
band     6 # energy  -42.35076897 # occ.  2.00000000
 
ion      s     py     pz     px    dxy    dyz    dz2    dxz  x2-y2    tot
    1  0.000  0.000  0.497  0.000  0.000  0.000  0.000  0.000  0.000  0.497
    2  0.000  0.000  0.497  0.000  0.000  0.000  0.000  0.000  0.000  0.497
tot    0.000  0.000  0.994  0.000  0.000  0.000  0.000  0.000  0.000  0.994
 
band     7 # energy    0.81171190 # occ.  2.00000000
 
ion      s     py     pz     px    dxy    dyz    dz2    dxz  x2-y2    tot
    1  0.180  0.000  0.000  0.000  0.000  0.000  0.000  0.000  0.000  0.180
    2  0.180  0.000  0.000  0.000  0.000  0.000  0.000  0.000  0.000  0.180
tot    0.360  0.000  0.000  0.000  0.000  0.000  0.001  0.000  0.000  0.361
 
band     8 # energy    3.38462729 # occ.  2.00000000
 
ion      s     py     pz     px    dxy    dyz    dz2    dxz  x2-y2    tot
    1  0.077  0.000  0.000  0.000  0.000  0.000  0.227  0.000  0.000  0.303
    2  0.077  0.000  0.000  0.000  0.000  0.000  0.227  0.000  0.000  0.303
tot    0.153  0.000  0.000  0.000  0.000  0.000  0.453  0.000  0.000  0.606
 
band     9 # energy    6.26451906 # occ.  2.00000000
 
ion      s     py     pz     px    dxy    dyz    dz2    dxz  x2-y2    tot
    1  0.000  0.000  0.000  0.000  0.000  0.000  0.409  0.000  0.000  0.409
    2  0.000  0.000  0.000  0.000  0.000  0.000  0.409  0.000  0.000  0.409
tot    0.000  0.000  0.000  0.000  0.000  0.000  0.818  0.000  0.000  0.818
 
band    10 # energy    6.69781137 # occ.  2.00000000
 
ion      s     py     pz     px    dxy    dyz    dz2    dxz  x2-y2    tot
    1  0.000  0.000  0.000  0.000  0.105  0.000  0.000  0.000  0.314  0.419
    2  0.000  0.000  0.000  0.000  0.105  0.000  0.000  0.000  0.314  0.419
tot    0.000  0.000  0.000  0.000  0.209  0.000  0.000  0.000  0.628  0.837
 
band    11 # energy    6.69781213 # occ.  2.00000000
 
ion      s     py     pz     px    dxy    dyz    dz2    dxz  x2-y2    tot
    1  0.000  0.000  0.000  0.000  0.314  0.000  0.000  0.000  0.105  0.419
    2  0.000  0.000  0.000  0.000  0.314  0.000  0.000  0.000  0.105  0.419
tot    0.000  0.000  0.000  0.000  0.628  0.000  0.000  0.000  0.209  0.837
 
band    12 # energy    7.01649723 # occ.  2.00000000
 
ion      s     py     pz     px    dxy    dyz    dz2    dxz  x2-y2    tot
    1  0.000  0.000  0.000  0.000  0.107  0.000  0.000  0.000  0.321  0.428
    2  0.000  0.000  0.000  0.000  0.107  0.000  0.000  0.000  0.321  0.428
tot    0.000  0.000  0.000  0.000  0.214  0.000  0.000  0.000  0.642  0.856
 
band    13 # energy    7.01649801 # occ.  2.00000000
 
ion      s     py     pz     px    dxy    dyz    dz2    dxz  x2-y2    tot
    1  0.000  0.000  0.000  0.000  0.321  0.000  0.000  0.000  0.107  0.428
    2  0.000  0.000  0.000  0.000  0.321  0.000  0.000  0.000  0.107  0.428
tot    0.000  0.000  0.000  0.000  0.642  0.000  0.000  0.000  0.214  0.856
 
band    14 # energy    8.12911638 # occ.  2.00000000
 
ion      s     py     pz     px    dxy    dyz    dz2    dxz  x2-y2    tot
    1  0.000  0.000  0.000  0.000  0.000  0.110  0.000  0.331  0.000  0.441
    2  0.000  0.000  0.000  0.000  0.000  0.110  0.000  0.331  0.000  0.441
tot    0.000  0.000  0.000  0.000  0.000  0.220  0.000  0.661  0.000  0.882
 
band    15 # energy    8.12911667 # occ.  2.00000000
 
ion      s     py     pz     px    dxy    dyz    dz2    dxz  x2-y2    tot
    1  0.000  0.000  0.000  0.000  0.000  0.331  0.000  0.110  0.000  0.441
    2  0.000  0.000  0.000  0.000  0.000  0.331  0.000  0.110  0.000  0.441
tot    0.000  0.000  0.000  0.000  0.000  0.661  0.000  0.220  0.000  0.882
 
band    16 # energy    9.35042661 # occ.  2.00000000
 
ion      s     py     pz     px    dxy    dyz    dz2    dxz  x2-y2    tot
    1  0.000  0.000  0.077  0.000  0.000  0.000  0.000  0.000  0.000  0.077
    2  0.000  0.000  0.077  0.000  0.000  0.000  0.000  0.000  0.000  0.077
tot    0.000  0.000  0.153  0.000  0.000  0.000  0.000  0.000  0.000  0.153
 
band    17 # energy    9.51637668 # occ.  1.99999915
 
ion      s     py     pz     px    dxy    dyz    dz2    dxz  x2-y2    tot
    1  0.000  0.000  0.000  0.000  0.000  0.116  0.000  0.347  0.000  0.462
    2  0.000  0.000  0.000  0.000  0.000  0.116  0.000  0.347  0.000  0.462
tot    0.000  0.000  0.000  0.000  0.000  0.231  0.000  0.694  0.000  0.925
 
band    18 # energy    9.51637701 # occ.  1.99999915
 
ion      s     py     pz     px    dxy    dyz    dz2    dxz  x2-y2    tot
    1  0.000  0.000  0.000  0.000  0.000  0.347  0.000  0.116  0.000  0.462
    2  0.000  0.000  0.000  0.000  0.000  0.347  0.000  0.116  0.000  0.462
tot    0.000  0.000  0.000  0.000  0.000  0.694  0.000  0.231  0.000  0.925
 
band    19 # energy   13.91260417 # occ.  0.00000000
 
ion      s     py     pz     px    dxy    dyz    dz2    dxz  x2-y2    tot
    1  0.169  0.000  0.000  0.000  0.000  0.000  0.226  0.000  0.000  0.395
    2  0.169  0.000  0.000  0.000  0.000  0.000  0.226  0.000  0.000  0.395
tot    0.337  0.000  0.000  0.000  0.000  0.000  0.452  0.000  0.000  0.789
 
band    20 # energy   24.87292912 # occ.  0.00000000
 
ion      s     py     pz     px    dxy    dyz    dz2    dxz  x2-y2    tot
    1  0.003  0.000  0.000  0.000  0.000  0.000  0.002  0.000  0.000  0.005
    2  0.003  0.000  0.000  0.000  0.000  0.000  0.002  0.000  0.000  0.005
tot    0.007  0.000  0.000  0.000  0.000  0.000  0.004  0.000  0.000  0.011
 
band    21 # energy   25.37433383 # occ.  0.00000000
 
ion      s     py     pz     px    dxy    dyz    dz2    dxz  x2-y2    tot
    1  0.000  0.000  0.022  0.000  0.000  0.000  0.000  0.000  0.000  0.022
    2  0.000  0.000  0.022  0.000  0.000  0.000  0.000  0.000  0.000  0.022
tot    0.000  0.000  0.045  0.000  0.000  0.000  0.000  0.000  0.000  0.045
 
band    22 # energy   26.89669502 # occ.  0.00000000
 
ion      s     py     pz     px    dxy    dyz    dz2    dxz  x2-y2    tot
    1  0.001  0.000  0.000  0.000  0.000  0.000  0.016  0.000  0.000  0.016
    2  0.001  0.000  0.000  0.000  0.000  0.000  0.016  0.000  0.000  0.016
tot    0.001  0.000  0.000  0.000  0.000  0.000  0.031  0.000  0.000  0.033
 
band    23 # energy   29.85202209 # occ.  0.00000000
 
ion      s     py     pz     px    dxy    dyz    dz2    dxz  x2-y2    tot
    1  0.000  0.031  0.000  0.093  0.014  0.000  0.000  0.000  0.005  0.143
    2  0.000  0.031  0.000  0.093  0.014  0.000  0.000  0.000  0.005  0.143
tot    0.000  0.062  0.000  0.185  0.028  0.000  0.000  0.000  0.010  0.286
 
band    24 # energy   29.85202221 # occ.  0.00000000
 
ion      s     py     pz     px    dxy    dyz    dz2    dxz  x2-y2    tot
    1  0.000  0.093  0.000  0.031  0.005  0.000  0.000  0.000  0.014  0.143
    2  0.000  0.093  0.000  0.031  0.005  0.000  0.000  0.000  0.014  0.143
tot    0.000  0.185  0.000  0.062  0.010  0.000  0.000  0.000  0.028  0.286
 

 k-point     2 :    0.10000000 0.00000000 0.00000000     weight = 0.00750000

band     1 # energy  -42.58425634 # occ.  2.00000000
 
ion      s     py     pz     px    dxy    dyz    dz2    dxz  x2-y2    tot
    1  0.000  0.000  0.493  0.000  0.000  0.000  0.000  0.000  0.000  0.493
    2  0.000  0.000  0.493  0.000  0.000  0.000  0.000  0.000  0.000  0.493
tot    0.000  0.000  0.985  0.000  0.000  0.000  0.000  0.000  0.000  0.985
 
band     2 # energy  -42.53081608 # occ.  2.00000000
 
ion      s     py     pz     px    dxy    dyz    dz2    dxz  x2-y2    tot
    1  0.000  0.124  0.000  0.373  0.000  0.000  0.000  0.000  0.000  0.497
    2  0.000  0.124  0.000  0.373  0.000  0.000  0.000  0.000  0.000  0.497
tot    0.000  0.248  0.000  0.745  0.000  0.000  0.000  0.000  0.000  0.994
 
band     3 # energy  -42.51186878 # occ.  2.00000000
 
ion      s     py     pz     px    dxy    dyz    dz2    dxz  x2-y2    tot
    1  0.000  0.373  0.000  0.124  0.000  0.000  0.000  0.000  0.000  0.497
    2  0.000  0.373  0.000  0.124  0.000  0.000  0.000  0.000  0.000  0.497
tot    0.000  0.746  0.000  0.249  0.000  0.000  0.000  0.000  0.000  0.994
 
band     4 # energy  -42.50101929 # occ.  2.00000000
 
ion      s     py     pz     px    dxy    dyz    dz2    dxz  x2-y2    tot
    1  0.000  0.124  0.000  0.373  0.000  0.000  0.000  0.000  0.000  0.497
    2  0.000  0.124  0.000  0.373  0.000  0.000  0.000  0.000  0.000  0.497
tot    0.000  0.249  0.000  0.746  0.000  0.000  0.000  0.000  0.000  0.995
 
band     5 # energy  -42.47954836 # occ.  2.00000000
 
ion      s     py     pz     px    dxy    dyz    dz2    dxz  x2-y2    tot
    1  0.000  0.373  0.000  0.124  0.000  0.000  0.000  0.000  0.000  0.498
    2  0.000  0.373  0.000  0.124  0.000  0.000  0.000  0.000  0.000  0.498
tot    0.000  0.747  0.000  0.249  0.000  0.000  0.000  0.000  0.000  0.995
 
band     6 # energy  -42.35249860 # occ.  2.00000000
 
ion      s     py     pz     px    dxy    dyz    dz2    dxz  x2-y2    tot
    1  0.000  0.000  0.497  0.000  0.000  0.000  0.000  0.000  0.000  0.497
    2  0.000  0.000  0.497  0.000  0.000  0.000  0.000  0.000  0.000  0.497
tot    0.000  0.000  0.994  0.000  0.000  0.000  0.000  0.000  0.000  0.994
 
band     7 # energy    1.14605633 # occ.  2.00000000
 
ion      s     py     pz     px    dxy    dyz    dz2    dxz  x2-y2    tot
    1  0.177  0.001  0.000  0.002  0.000  0.000  0.000  0.000  0.000  0.179
    2  0.177  0.001  0.000  0.002  0.000  0.000  0.000  0.000  0.000  0.179
tot    0.353  0.001  0.000  0.003  0.001  0.000  0.000  0.000  0.000  0.358
 
band     8 # energy    3.68418653 # occ.  2.00000000
 
ion      s     py     pz     px    dxy    dyz    dz2    dxz  x2-y2    tot
    1  0.070  0.000  0.000  0.001  0.002  0.000  0.231  0.000  0.001  0.305
    2  0.070  0.000  0.000  0.001  0.002  0.000  0.231  0.000  0.001  0.305
tot    0.141  0.001  0.000  0.003  0.003  0.000  0.462  0.000  0.001  0.611
 
band     9 # energy    6.20398616 # occ.  2.00000000
 
ion      s     py     pz     px    dxy    dyz    dz2    dxz  x2-y2    tot
    1  0.000  0.000  0.000  0.000  0.116  0.000  0.250  0.000  0.039  0.405
    2  0.000  0.000  0.000  0.000  0.116  0.000  0.250  0.000  0.039  0.405
tot    0.000  0.000  0.000  0.001  0.232  0.000  0.501  0.000  0.077  0.810
 
band    10 # energy    6.71195101 # occ.  2.00000000
 
ion      s     py     pz     px    dxy    dyz    dz2    dxz  x2-y2    tot
    1  0.000  0.000  0.000  0.000  0.210  0.000  0.135  0.000  0.070  0.416
    2  0.000  0.000  0.000  0.000  0.210  0.000  0.135  0.000  0.070  0.416
tot    0.000  0.000  0.000  0.001  0.421  0.000  0.271  0.000  0.140  0.832
 
band    11 # energy    6.88994475 # occ.  2.00000000
 
ion      s     py     pz     px    dxy    dyz    dz2    dxz  x2-y2    tot
    1  0.001  0.000  0.000  0.000  0.295  0.000  0.026  0.000  0.098  0.421
    2  0.001  0.000  0.000  0.000  0.295  0.000  0.026  0.000  0.098  0.421
tot    0.003  0.000  0.000  0.001  0.590  0.000  0.052  0.000  0.197  0.842
 
band    12 # energy    6.94178608 # occ.  2.00000000
 
ion      s     py     pz     px    dxy    dyz    dz2    dxz  x2-y2    tot
    1  0.000  0.000  0.000  0.000  0.105  0.000  0.000  0.000  0.315  0.421
    2  0.000  0.000  0.000  0.000  0.105  0.000  0.000  0.000  0.315  0.421
tot    0.000  0.001  0.000  0.000  0.210  0.000  0.000  0.000  0.630  0.841
 
band    13 # energy    7.24809108 # occ.  2.00000000
 
ion      s     py     pz     px    dxy    dyz    dz2    dxz  x2-y2    tot
    1  0.000  0.000  0.000  0.000  0.107  0.000  0.000  0.000  0.322  0.430
    2  0.000  0.000  0.000  0.000  0.107  0.000  0.000  0.000  0.322  0.430
tot    0.000  0.001  0.000  0.000  0.215  0.000  0.000  0.000  0.644  0.860
 
band    14 # energy    7.66625825 # occ.  2.00000000
 
ion      s     py     pz     px    dxy    dyz    dz2    dxz  x2-y2    tot
    1  0.000  0.000  0.014  0.000  0.000  0.086  0.000  0.258  0.000  0.358
    2  0.000  0.000  0.014  0.000  0.000  0.086  0.000  0.258  0.000  0.358
tot    0.000  0.000  0.027  0.000  0.000  0.172  0.000  0.517  0.000  0.716
 
band    15 # energy    7.98295341 # occ.  2.00000000
 
ion      s     py     pz     px    dxy    dyz    dz2    dxz  x2-y2    tot
    1  0.000  0.000  0.000  0.000  0.000  0.328  0.000  0.109  0.000  0.437
    2  0.000  0.000  0.000  0.000  0.000  0.328  0.000  0.109  0.000  0.437
tot    0.000  0.000  0.000  0.000  0.000  0.655  0.000  0.218  0.000  0.873
 
band    16 # energy    8.16161470 # occ.  2.00000000
 
ion      s     py     pz     px    dxy    dyz    dz2    dxz  x2-y2    tot
    1  0.000  0.000  0.018  0.000  0.000  0.083  0.000  0.248  0.000  0.349
    2  0.000  0.000  0.018  0.000  0.000  0.083  0.000  0.248  0.000  0.349
tot    0.000  0.000  0.036  0.000  0.000  0.165  0.000  0.496  0.000  0.698
 
band    17 # energy    9.56809822 # occ.  1.99945990
 
ion      s     py     pz     px    dxy    dyz    dz2    dxz  x2-y2    tot
    1  0.000  0.000  0.000  0.000  0.000  0.349  0.000  0.116  0.000  0.465
    2  0.000  0.000  0.000  0.000  0.000  0.349  0.000  0.116  0.000  0.465
tot    0.000  0.000  0.000  0.000  0.000  0.697  0.000  0.232  0.000  0.930
 
band    18 # energy   11.26040134 # occ.  0.00000000
 
ion      s     py     pz     px    dxy    dyz    dz2    dxz  x2-y2    tot
    1  0.000  0.000  0.046  0.000  0.000  0.055  0.000  0.166  0.000  0.267
    2  0.000  0.000  0.046  0.000  0.000  0.055  0.000  0.166  0.000  0.267
tot    0.000  0.000  0.091  0.000  0.000  0.111  0.000  0.332  0.000  0.534
 
band    19 # energy   13.88769125 # occ.  0.00000000
 
ion      s     py     pz     px    dxy    dyz    dz2    dxz  x2-y2    tot
    1  0.170  0.000  0.000  0.001  0.001  0.000  0.217  0.000  0.000  0.390
    2  0.170  0.000  0.000  0.001  0.001  0.000  0.217  0.000  0.000  0.390
tot    0.340  0.000  0.000  0.001  0.003  0.000  0.434  0.000  0.001  0.779
 
band    20 # energy   25.14858064 # occ.  0.00000000
 
ion      s     py     pz     px    dxy    dyz    dz2    dxz  x2-y2    tot
    1  0.006  0.002  0.000  0.005  0.019  0.000  0.003  0.000  0.006  0.041
    2  0.006  0.002  0.000  0.005  0.019  0.000  0.003  0.000  0.006  0.041
tot    0.011  0.003  0.000  0.010  0.038  0.000  0.007  0.000  0.013  0.082
 
band    21 # energy   25.86052496 # occ.  0.00000000
 
ion      s     py     pz     px    dxy    dyz    dz2    dxz  x2-y2    tot
    1  0.000  0.000  0.020  0.000  0.000  0.002  0.000  0.005  0.000  0.026
    2  0.000  0.000  0.020  0.000  0.000  0.002  0.000  0.005  0.000  0.026
tot    0.000  0.000  0.040  0.000  0.000  0.003  0.000  0.010  0.000  0.053
 
band    22 # energy   26.94899662 # occ.  0.00000000
 
ion      s     py     pz     px    dxy    dyz    dz2    dxz  x2-y2    tot
    1  0.005  0.007  0.000  0.022  0.018  0.000  0.023  0.000  0.006  0.082
    2  0.005  0.007  0.000  0.022  0.018  0.000  0.023  0.000  0.006  0.082
tot    0.010  0.015  0.000  0.044  0.036  0.000  0.046  0.000  0.012  0.163
 
band    23 # energy   28.40365801 # occ.  0.00000000
 
ion      s     py     pz     px    dxy    dyz    dz2    dxz  x2-y2    tot
    1  0.000  0.083  0.000  0.028  0.009  0.000  0.000  0.000  0.026  0.146
    2  0.000  0.083  0.000  0.028  0.009  0.000  0.000  0.000  0.026  0.146
tot    0.000  0.165  0.000  0.055  0.018  0.000  0.000  0.000  0.053  0.291
 
band    24 # energy   28.52184054 # occ.  0.00000000
 
ion      s     py     pz     px    dxy    dyz    dz2    dxz  x2-y2    tot
    1  0.005  0.018  0.000  0.055  0.006  0.000  0.000  0.000  0.002  0.086
    2  0.005  0.018  0.000  0.055  0.006  0.000  0.000  0.000  0.002  0.086
tot    0.010  0.036  0.000  0.109  0.012  0.000  0.000  0.000  0.004  0.171
 

 k-point     3 :    0.20000000 0.00000000 0.00000000     weight = 0.00750000

band     1 # energy  -42.60026983 # occ.  2.00000000
 
ion      s     py     pz     px    dxy    dyz    dz2    dxz  x2-y2    tot
    1  0.000  0.124  0.000  0.372  0.000  0.000  0.000  0.000  0.000  0.496
    2  0.000  0.124  0.000  0.372  0.000  0.000  0.000  0.000  0.000  0.496
tot    0.000  0.248  0.000  0.743  0.000  0.000  0.000  0.000  0.000  0.991
 
band     2 # energy  -42.57177584 # occ.  2.00000000
 
ion      s     py     pz     px    dxy    dyz    dz2    dxz  x2-y2    tot
    1  0.000  0.124  0.000  0.372  0.000  0.000  0.000  0.000  0.000  0.496
    2  0.000  0.124  0.000  0.372  0.000  0.000  0.000  0.000  0.000  0.496
tot    0.000  0.248  0.000  0.744  0.000  0.000  0.000  0.000  0.000  0.992
 
band     3 # energy  -42.56055634 # occ.  2.00000000
 
ion      s     py     pz     px    dxy    dyz    dz2    dxz  x2-y2    tot
    1  0.000  0.000  0.493  0.000  0.000  0.000  0.000  0.000  0.000  0.493
    2  0.000  0.000  0.493  0.000  0.000  0.000  0.000  0.000  0.000  0.493
tot    0.000  0.000  0.986  0.000  0.000  0.000  0.000  0.000  0.000  0.986
 
band     4 # energy  -42.53184980 # occ.  2.00000000
 
ion      s     py     pz     px    dxy    dyz    dz2    dxz  x2-y2    tot
    1  0.000  0.373  0.000  0.124  0.000  0.000  0.000  0.000  0.000  0.497
    2  0.000  0.373  0.000  0.124  0.000  0.000  0.000  0.000  0.000  0.497
tot    0.000  0.745  0.000  0.248  0.000  0.000  0.000  0.000  0.000  0.994
 
band     5 # energy  -42.49465124 # occ.  2.00000000
 
ion      s     py     pz     px    dxy    dyz    dz2    dxz  x2-y2    tot
    1  0.000  0.373  0.000  0.124  0.000  0.000  0.000  0.000  0.000  0.498
    2  0.000  0.373  0.000  0.124  0.000  0.000  0.000  0.000  0.000  0.498
tot    0.000  0.746  0.000  0.249  0.000  0.000  0.000  0.000  0.000  0.995
 
band     6 # energy  -42.35915938 # occ.  2.00000000
 
ion      s     py     pz     px    dxy    dyz    dz2    dxz  x2-y2    tot
    1  0.000  0.000  0.497  0.000  0.000  0.000  0.000  0.000  0.000  0.497
    2  0.000  0.000  0.497  0.000  0.000  0.000  0.000  0.000  0.000  0.497
tot    0.000  0.000  0.994  0.000  0.000  0.000  0.000  0.000  0.000  0.994
 
band     7 # energy    2.06497124 # occ.  2.00000000
 
ion      s     py     pz     px    dxy    dyz    dz2    dxz  x2-y2    tot
    1  0.164  0.002  0.000  0.005  0.006  0.000  0.001  0.000  0.002  0.179
    2  0.164  0.002  0.000  0.005  0.006  0.000  0.001  0.000  0.002  0.179
tot    0.329  0.003  0.000  0.010  0.011  0.000  0.001  0.000  0.004  0.359
 
band     8 # energy    4.35264413 # occ.  2.00000000
 
ion      s     py     pz     px    dxy    dyz    dz2    dxz  x2-y2    tot
    1  0.048  0.001  0.000  0.003  0.037  0.000  0.220  0.000  0.012  0.321
    2  0.048  0.001  0.000  0.003  0.037  0.000  0.220  0.000  0.012  0.321
tot    0.096  0.002  0.000  0.007  0.074  0.000  0.439  0.000  0.025  0.642
 
band     9 # energy    6.00283918 # occ.  2.00000000
 
ion      s     py     pz     px    dxy    dyz    dz2    dxz  x2-y2    tot
    1  0.003  0.001  0.000  0.003  0.187  0.000  0.127  0.000  0.062  0.382
    2  0.003  0.001  0.000  0.003  0.187  0.000  0.127  0.000  0.062  0.382
tot    0.005  0.002  0.000  0.006  0.373  0.000  0.254  0.000  0.124  0.764
 
band    10 # energy    6.46182124 # occ.  2.00000000
 
ion      s     py     pz     px    dxy    dyz    dz2    dxz  x2-y2    tot
    1  0.000  0.000  0.015  0.000  0.000  0.077  0.000  0.230  0.000  0.322
    2  0.000  0.000  0.015  0.000  0.000  0.077  0.000  0.230  0.000  0.322
tot    0.000  0.000  0.030  0.000  0.000  0.154  0.000  0.461  0.000  0.644
 
band    11 # energy    6.46360952 # occ.  2.00000000
 
ion      s     py     pz     px    dxy    dyz    dz2    dxz  x2-y2    tot
    1  0.005  0.000  0.000  0.001  0.258  0.000  0.053  0.000  0.086  0.403
    2  0.005  0.000  0.000  0.001  0.258  0.000  0.053  0.000  0.086  0.403
tot    0.010  0.001  0.000  0.002  0.515  0.000  0.107  0.000  0.172  0.805
 
band    12 # energy    7.26046123 # occ.  2.00000000
 
ion      s     py     pz     px    dxy    dyz    dz2    dxz  x2-y2    tot
    1  0.003  0.000  0.000  0.001  0.109  0.000  0.268  0.000  0.036  0.418
    2  0.003  0.000  0.000  0.001  0.109  0.000  0.268  0.000  0.036  0.418
tot    0.006  0.001  0.000  0.003  0.218  0.000  0.535  0.000  0.073  0.836
 
band    13 # energy    7.63097008 # occ.  2.00000000
 
ion      s     py     pz     px    dxy    dyz    dz2    dxz  x2-y2    tot
    1  0.000  0.001  0.000  0.000  0.107  0.000  0.000  0.000  0.320  0.428
    2  0.000  0.001  0.000  0.000  0.107  0.000  0.000  0.000  0.320  0.428
tot    0.000  0.001  0.000  0.000  0.213  0.000  0.000  0.000  0.640  0.856
 
band    14 # energy    7.65552226 # occ.  2.00000000
 
ion      s     py     pz     px    dxy    dyz    dz2    dxz  x2-y2    tot
    1  0.000  0.000  0.000  0.000  0.000  0.321  0.000  0.107  0.000  0.428
    2  0.000  0.000  0.000  0.000  0.000  0.321  0.000  0.107  0.000  0.428
tot    0.000  0.000  0.000  0.000  0.000  0.642  0.000  0.214  0.000  0.857
 
band    15 # energy    7.68987376 # occ.  2.00000000
 
ion      s     py     pz     px    dxy    dyz    dz2    dxz  x2-y2    tot
    1  0.000  0.000  0.008  0.000  0.000  0.095  0.000  0.286  0.000  0.390
    2  0.000  0.000  0.008  0.000  0.000  0.095  0.000  0.286  0.000  0.390
tot    0.000  0.000  0.016  0.000  0.000  0.191  0.000  0.572  0.000  0.779
 
band    16 # energy    7.89640961 # occ.  2.00000000
 
ion      s     py     pz     px    dxy    dyz    dz2    dxz  x2-y2    tot
    1  0.000  0.001  0.000  0.000  0.109  0.000  0.000  0.000  0.327  0.437
    2  0.000  0.001  0.000  0.000  0.109  0.000  0.000  0.000  0.327  0.437
tot    0.000  0.001  0.000  0.000  0.218  0.000  0.000  0.000  0.654  0.873
 
band    17 # energy    9.65167585 # occ.  1.72696746
 
ion      s     py     pz     px    dxy    dyz    dz2    dxz  x2-y2    tot
    1  0.000  0.000  0.000  0.000  0.000  0.351  0.000  0.117  0.000  0.468
    2  0.000  0.000  0.000  0.000  0.000  0.351  0.000  0.117  0.000  0.468
tot    0.000  0.000  0.000  0.000  0.000  0.702  0.000  0.234  0.000  0.936
 
band    18 # energy   13.27803822 # occ.  0.00000000
 
ion      s     py     pz     px    dxy    dyz    dz2    dxz  x2-y2    tot
    1  0.000  0.000  0.056  0.000  0.000  0.047  0.000  0.142  0.000  0.246
    2  0.000  0.000  0.056  0.000  0.000  0.047  0.000  0.142  0.000  0.246
tot    0.000  0.000  0.113  0.000  0.000  0.095  0.000  0.285  0.000  0.492
 
band    19 # energy   13.85621203 # occ.  0.00000000
 
ion      s     py     pz     px    dxy    dyz    dz2    dxz  x2-y2    tot
    1  0.175  0.001  0.000  0.003  0.005  0.000  0.186  0.000  0.002  0.371
    2  0.175  0.001  0.000  0.003  0.005  0.000  0.186  0.000  0.002  0.371
tot    0.349  0.002  0.000  0.005  0.010  0.000  0.373  0.000  0.003  0.742
 
band    20 # energy   23.08104941 # occ.  0.00000000
 
ion      s     py     pz     px    dxy    dyz    dz2    dxz  x2-y2    tot
    1  0.028  0.016  0.000  0.049  0.048  0.000  0.026  0.000  0.016  0.184
    2  0.028  0.016  0.000  0.049  0.048  0.000  0.026  0.000  0.016  0.184
tot    0.056  0.033  0.000  0.099  0.096  0.000  0.052  0.000  0.032  0.368
 
band    21 # energy   26.09478278 # occ.  0.00000000
 
ion      s     py     pz     px    dxy    dyz    dz2    dxz  x2-y2    tot
    1  0.000  0.077  0.000  0.026  0.010  0.000  0.000  0.000  0.030  0.144
    2  0.000  0.077  0.000  0.026  0.010  0.000  0.000  0.000  0.030  0.144
tot    0.000  0.155  0.000  0.052  0.020  0.000  0.000  0.000  0.061  0.288
 
band    22 # energy   26.44614658 # occ.  0.00000000
 
ion      s     py     pz     px    dxy    dyz    dz2    dxz  x2-y2    tot
    1  0.000  0.000  0.012  0.000  0.000  0.002  0.000  0.007  0.000  0.022
    2  0.000  0.000  0.012  0.000  0.000  0.002  0.000  0.007  0.000  0.022
tot    0.000  0.000  0.025  0.000  0.000  0.005  0.000  0.015  0.000  0.045
 
band    23 # energy   27.29739245 # occ.  0.00000000
 
ion      s     py     pz     px    dxy    dyz    dz2    dxz  x2-y2    tot
    1  0.005  0.003  0.000  0.009  0.035  0.000  0.015  0.000  0.012  0.079
    2  0.005  0.003  0.000  0.009  0.035  0.000  0.015  0.000  0.012  0.079
tot    0.010  0.006  0.000  0.018  0.069  0.000  0.030  0.000  0.023  0.157
 
band    24 # energy   27.55945664 # occ.  0.00000000
 
ion      s     py     pz     px    dxy    dyz    dz2    dxz  x2-y2    tot
    1  0.000  0.000  0.003  0.000  0.000  0.015  0.000  0.046  0.000  0.064
    2  0.000  0.000  0.003  0.000  0.000  0.015  0.000  0.046  0.000  0.064
tot    0.000  0.000  0.006  0.000  0.000  0.031  0.000  0.092  0.000  0.129
 

 k-point     4 :    0.30000000-0.00000000 0.00000000     weight = 0.00750000

band     1 # energy  -42.68626313 # occ.  2.00000000
 
ion      s     py     pz     px    dxy    dyz    dz2    dxz  x2-y2    tot
    1  0.000  0.124  0.000  0.371  0.000  0.000  0.000  0.000  0.000  0.494
    2  0.000  0.124  0.000  0.371  0.000  0.000  0.000  0.000  0.000  0.494
tot    0.000  0.247  0.000  0.741  0.000  0.000  0.000  0.000  0.000  0.988
 
band     2 # energy  -42.65713153 # occ.  2.00000000
 
ion      s     py     pz     px    dxy    dyz    dz2    dxz  x2-y2    tot
    1  0.000  0.124  0.000  0.371  0.000  0.000  0.000  0.000  0.000  0.495
    2  0.000  0.124  0.000  0.371  0.000  0.000  0.000  0.000  0.000  0.495
tot    0.000  0.247  0.000  0.742  0.000  0.000  0.000  0.000  0.000  0.989
 
band     3 # energy  -42.55597554 # occ.  2.00000000
 
ion      s     py     pz     px    dxy    dyz    dz2    dxz  x2-y2    tot
    1  0.000  0.372  0.000  0.124  0.000  0.000  0.000  0.000  0.000  0.496
    2  0.000  0.372  0.000  0.124  0.000  0.000  0.000  0.000  0.000  0.496
tot    0.000  0.745  0.000  0.248  0.000  0.000  0.000  0.000  0.000  0.993
 
band     4 # energy  -42.52752722 # occ.  2.00000000
 
ion      s     py     pz     px    dxy    dyz    dz2    dxz  x2-y2    tot
    1  0.000  0.000  0.494  0.000  0.000  0.000  0.000  0.000  0.000  0.494
    2  0.000  0.000  0.494  0.000  0.000  0.000  0.000  0.000  0.000  0.494
tot    0.000  0.000  0.988  0.000  0.000  0.000  0.000  0.000  0.000  0.988
 
band     5 # energy  -42.51325673 # occ.  2.00000000
 
ion      s     py     pz     px    dxy    dyz    dz2    dxz  x2-y2    tot
    1  0.000  0.373  0.000  0.124  0.000  0.000  0.000  0.000  0.000  0.497
    2  0.000  0.373  0.000  0.124  0.000  0.000  0.000  0.000  0.000  0.497
tot    0.000  0.746  0.000  0.249  0.000  0.000  0.000  0.000  0.000  0.995
 
band     6 # energy  -42.37153572 # occ.  2.00000000
 
ion      s     py     pz     px    dxy    dyz    dz2    dxz  x2-y2    tot
    1  0.000  0.000  0.497  0.000  0.000  0.000  0.000  0.000  0.000  0.497
    2  0.000  0.000  0.497  0.000  0.000  0.000  0.000  0.000  0.000  0.497
tot    0.000  0.000  0.994  0.000  0.000  0.000  0.000  0.000  0.000  0.994
 
band     7 # energy    3.21778372 # occ.  2.00000000
 
ion      s     py     pz     px    dxy    dyz    dz2    dxz  x2-y2    tot
    1  0.132  0.003  0.000  0.008  0.044  0.000  0.005  0.000  0.015  0.206
    2  0.132  0.003  0.000  0.008  0.044  0.000  0.005  0.000  0.015  0.206
tot    0.263  0.005  0.000  0.015  0.089  0.000  0.011  0.000  0.030  0.413
 
band     8 # energy    4.49998250 # occ.  2.00000000
 
ion      s     py     pz     px    dxy    dyz    dz2    dxz  x2-y2    tot
    1  0.019  0.000  0.000  0.001  0.159  0.000  0.119  0.000  0.053  0.353
    2  0.019  0.000  0.000  0.001  0.159  0.000  0.119  0.000  0.053  0.353
tot    0.039  0.001  0.000  0.002  0.319  0.000  0.239  0.000  0.106  0.705
 
band     9 # energy    5.52011775 # occ.  2.00000000
 
ion      s     py     pz     px    dxy    dyz    dz2    dxz  x2-y2    tot
    1  0.000  0.000  0.009  0.000  0.000  0.080  0.000  0.240  0.000  0.329
    2  0.000  0.000  0.009  0.000  0.000  0.080  0.000  0.240  0.000  0.329
tot    0.000  0.000  0.018  0.000  0.000  0.160  0.000  0.479  0.000  0.657
 
band    10 # energy    6.23738229 # occ.  2.00000000
 
ion      s     py     pz     px    dxy    dyz    dz2    dxz  x2-y2    tot
    1  0.012  0.003  0.000  0.008  0.211  0.000  0.044  0.000  0.070  0.348
    2  0.012  0.003  0.000  0.008  0.211  0.000  0.044  0.000  0.070  0.348
tot    0.024  0.005  0.000  0.015  0.423  0.000  0.089  0.000  0.141  0.696
 
band    11 # energy    6.54584454 # occ.  2.00000000
 
ion      s     py     pz     px    dxy    dyz    dz2    dxz  x2-y2    tot