<?xml version="1.0" encoding="ISO-8859-1"?>
<modeling>
 <generator>
  <i name="program" type="string">vasp </i>
  <i name="version" type="string">6.3.2  </i>
  <i name="subversion" type="string">27Jun22 (build Aug 12 2022 00:53:59) complex                          parallel </i>
  <i name="platform" type="string">tv2STD </i>
  <i name="date" type="string">2024 11 30 </i>
  <i name="time" type="string">17:16:00 </i>
 </generator>
 <incar>
  <i type="string" name="SYSTEM">Pt-hcc</i>
  <i type="int" name="ISTART">     0</i>
  <i type="string" name="PREC">Accurate      normal | accurate</i>
  <i type="string" name="ALGO">Normal     Normal, Fast, Very_Fast</i>
  <i type="logical" name="ADDGRID"> F  </i>
  <i type="int" name="ICHARG">     2</i>
  <i type="int" name="INIWAV">     1</i>
  <i type="int" name="NELM">   100</i>
  <i type="int" name="IBRION">     2</i>
  <i name="EDIFF">      0.00000100</i>
  <i name="EDIFFG">     -0.02000000</i>
  <i type="int" name="NSW">   100</i>
  <i type="int" name="ISIF">     2</i>
  <i type="int" name="ISYM">     1</i>
  <i name="ENCUT">    450.00000000</i>
  <i type="logical" name="LREAL"> F  </i>
  <i type="int" name="ISMEAR">     0</i>
  <i name="SIGMA">      0.05000000</i>
  <i type="int" name="NWRITE">     2</i>
  <i type="logical" name="LWAVE"> T  </i>
  <i type="logical" name="LCHARG"> T  </i>
  <i type="int" name="LORBIT">    11</i>
 </incar>
 <primitive_cell>
  <structure name="primitive_cell" >
   <crystal>
    <varray name="basis" >
     <v>       2.78322699       0.00000000       0.00000000 </v>
     <v>      -1.39161349       2.41034527       0.00000000 </v>
     <v>       0.00000000       0.00000000       4.82187589 </v>
    </varray>
    <i name="volume">     32.34773768 </i>
    <varray name="rec_basis" >
     <v>       0.35929517       0.20743916       0.00000000 </v>
     <v>       0.00000000       0.41487832       0.00000000 </v>
     <v>       0.00000000       0.00000000       0.20738817 </v>
    </varray>
   </crystal>
   <varray name="positions" >
    <v>       0.00000000       0.00000000       0.00000000 </v>
    <v>       0.33333333       0.66666667       0.50000000 </v>
   </varray>
  </structure>
  <varray name="primitive_index" >
   <v type="int" >        1 </v>
   <v type="int" >        2 </v>
  </varray>
 </primitive_cell>
 <kpoints>
  <generation param="Gamma">
   <v type="int" name="divisions">      10       10        8 </v>
   <v name="usershift">      0.00000000       0.00000000       0.00000000 </v>
   <v name="genvec1">      0.10000000       0.00000000       0.00000000 </v>
   <v name="genvec2">      0.00000000       0.10000000       0.00000000 </v>
   <v name="genvec3">      0.00000000       0.00000000       0.12500000 </v>
   <v name="shift">      0.00000000       0.00000000       0.00000000 </v>
  </generation>
  <varray name="kpointlist" >
   <v>       0.00000000       0.00000000       0.00000000 </v>
   <v>       0.10000000       0.00000000       0.00000000 </v>
   <v>       0.20000000       0.00000000       0.00000000 </v>
   <v>       0.30000000      -0.00000000       0.00000000 </v>
   <v>       0.40000000       0.00000000       0.00000000 </v>
   <v>       0.50000000       0.00000000       0.00000000 </v>
   <v>       0.10000000       0.10000000       0.00000000 </v>
   <v>       0.20000000       0.10000000       0.00000000 </v>
   <v>       0.30000000       0.10000000       0.00000000 </v>
   <v>       0.40000000       0.10000000       0.00000000 </v>
   <v>       0.20000000       0.20000000       0.00000000 </v>
   <v>       0.30000000       0.20000000       0.00000000 </v>
   <v>       0.40000000       0.20000000       0.00000000 </v>
   <v>       0.30000000       0.30000000       0.00000000 </v>
   <v>       0.00000000       0.00000000       0.12500000 </v>
   <v>       0.10000000       0.00000000       0.12500000 </v>
   <v>       0.20000000       0.00000000       0.12500000 </v>
   <v>       0.30000000      -0.00000000       0.12500000 </v>
   <v>       0.40000000       0.00000000       0.12500000 </v>
   <v>       0.50000000       0.00000000       0.12500000 </v>
   <v>       0.10000000       0.10000000       0.12500000 </v>
   <v>       0.20000000       0.10000000       0.12500000 </v>
   <v>       0.30000000       0.10000000       0.12500000 </v>
   <v>       0.40000000       0.10000000       0.12500000 </v>
   <v>       0.20000000       0.20000000       0.12500000 </v>
   <v>       0.30000000       0.20000000       0.12500000 </v>
   <v>       0.40000000       0.20000000       0.12500000 </v>
   <v>       0.30000000       0.30000000       0.12500000 </v>
   <v>       0.00000000       0.00000000       0.25000000 </v>
   <v>       0.10000000       0.00000000       0.25000000 </v>
   <v>       0.20000000       0.00000000       0.25000000 </v>
   <v>       0.30000000      -0.00000000       0.25000000 </v>
   <v>       0.40000000       0.00000000       0.25000000 </v>
   <v>       0.50000000       0.00000000       0.25000000 </v>
   <v>       0.10000000       0.10000000       0.25000000 </v>
   <v>       0.20000000       0.10000000       0.25000000 </v>
   <v>       0.30000000       0.10000000       0.25000000 </v>
   <v>       0.40000000       0.10000000       0.25000000 </v>
   <v>       0.20000000       0.20000000       0.25000000 </v>
   <v>       0.30000000       0.20000000       0.25000000 </v>
   <v>       0.40000000       0.20000000       0.25000000 </v>
   <v>       0.30000000       0.30000000       0.25000000 </v>
   <v>       0.00000000       0.00000000       0.37500000 </v>
   <v>       0.10000000       0.00000000       0.37500000 </v>
   <v>       0.20000000       0.00000000       0.37500000 </v>
   <v>       0.30000000      -0.00000000       0.37500000 </v>
   <v>       0.40000000       0.00000000       0.37500000 </v>
   <v>       0.50000000       0.00000000       0.37500000 </v>
   <v>       0.10000000       0.10000000       0.37500000 </v>
   <v>       0.20000000       0.10000000       0.37500000 </v>
   <v>       0.30000000       0.10000000       0.37500000 </v>
   <v>       0.40000000       0.10000000       0.37500000 </v>
   <v>       0.20000000       0.20000000       0.37500000 </v>
   <v>       0.30000000       0.20000000       0.37500000 </v>
   <v>       0.40000000       0.20000000       0.37500000 </v>
   <v>       0.30000000       0.30000000       0.37500000 </v>
   <v>       0.00000000       0.00000000       0.50000000 </v>
   <v>       0.10000000       0.00000000       0.50000000 </v>
   <v>       0.20000000       0.00000000       0.50000000 </v>
   <v>       0.30000000      -0.00000000       0.50000000 </v>
   <v>       0.40000000       0.00000000       0.50000000 </v>
   <v>       0.50000000       0.00000000       0.50000000 </v>
   <v>       0.10000000       0.10000000       0.50000000 </v>
   <v>       0.20000000       0.10000000       0.50000000 </v>
   <v>       0.30000000       0.10000000       0.50000000 </v>
   <v>       0.40000000       0.10000000       0.50000000 </v>
   <v>       0.20000000       0.20000000       0.50000000 </v>
   <v>       0.30000000       0.20000000       0.50000000 </v>
   <v>       0.40000000       0.20000000       0.50000000 </v>
   <v>       0.30000000       0.30000000       0.50000000 </v>
  </varray>
  <varray name="weights" >
   <v>       0.00125000 </v>
   <v>       0.00750000 </v>
   <v>       0.00750000 </v>
   <v>       0.00750000 </v>
   <v>       0.00750000 </v>
   <v>       0.00375000 </v>
   <v>       0.00750000 </v>
   <v>       0.01500000 </v>
   <v>       0.01500000 </v>
   <v>       0.01500000 </v>
   <v>       0.00750000 </v>
   <v>       0.01500000 </v>
   <v>       0.00750000 </v>
   <v>       0.00750000 </v>
   <v>       0.00250000 </v>
   <v>       0.01500000 </v>
   <v>       0.01500000 </v>
   <v>       0.01500000 </v>
   <v>       0.01500000 </v>
   <v>       0.00750000 </v>
   <v>       0.01500000 </v>
   <v>       0.03000000 </v>
   <v>       0.03000000 </v>
   <v>       0.03000000 </v>
   <v>       0.01500000 </v>
   <v>       0.03000000 </v>
   <v>       0.01500000 </v>
   <v>       0.01500000 </v>
   <v>       0.00250000 </v>
   <v>       0.01500000 </v>
   <v>       0.01500000 </v>
   <v>       0.01500000 </v>
   <v>       0.01500000 </v>
   <v>       0.00750000 </v>
   <v>       0.01500000 </v>
   <v>       0.03000000 </v>
   <v>       0.03000000 </v>
   <v>       0.03000000 </v>
   <v>       0.01500000 </v>
   <v>       0.03000000 </v>
   <v>       0.01500000 </v>
   <v>       0.01500000 </v>
   <v>       0.00250000 </v>
   <v>       0.01500000 </v>
   <v>       0.01500000 </v>
   <v>       0.01500000 </v>
   <v>       0.01500000 </v>
   <v>       0.00750000 </v>
   <v>       0.01500000 </v>
   <v>       0.03000000 </v>
   <v>       0.03000000 </v>
   <v>       0.03000000 </v>
   <v>       0.01500000 </v>
   <v>       0.03000000 </v>
   <v>       0.01500000 </v>
   <v>       0.01500000 </v>
   <v>       0.00125000 </v>
   <v>       0.00750000 </v>
   <v>       0.00750000 </v>
   <v>       0.00750000 </v>
   <v>       0.00750000 </v>
   <v>       0.00375000 </v>
   <v>       0.00750000 </v>
   <v>       0.01500000 </v>
   <v>       0.01500000 </v>
   <v>       0.01500000 </v>
   <v>       0.00750000 </v>
   <v>       0.01500000 </v>
   <v>       0.00750000 </v>
   <v>       0.00750000 </v>
  </varray>
 </kpoints>
 <parameters>
  <separator name="general" >
   <i type="string" name="SYSTEM">Pt-hcc</i>
   <i type="logical" name="LCOMPAT"> F  </i>
  </separator>
  <separator name="electronic" >
   <i type="string" name="PREC">accura</i>
   <i name="ENMAX">    450.00000000</i>
   <i name="ENAUG">    527.01400000</i>
   <i name="EDIFF">      0.00000100</i>
   <i type="int" name="IALGO">    38</i>
   <i type="int" name="IWAVPR">    11</i>
   <i type="int" name="NBANDS">    24</i>
   <i type="int" name="NBANDSLOW">    -1</i>
   <i type="int" name="NBANDSHIGH">    -1</i>
   <i name="NELECT">     32.00000000</i>
   <i type="int" name="TURBO">     0</i>
   <i type="int" name="IRESTART">     0</i>
   <i type="int" name="NREBOOT">     0</i>
   <i type="int" name="NMIN">     0</i>
   <i name="EREF">      0.00000000</i>
   <separator name="electronic smearing" >
    <i type="int" name="ISMEAR">     0</i>
    <i name="SIGMA">      0.05000000</i>
    <i name="KSPACING">      0.50000000</i>
    <i type="logical" name="KGAMMA"> T  </i>
    <i type="logical" name="KBLOWUP"> T  </i>
   </separator>
   <separator name="electronic projectors" >
    <i type="logical" name="LREAL"> F  </i>
    <v name="ROPT">      0.00000000</v>
    <i type="int" name="LMAXPAW">  -100</i>
    <i type="int" name="LMAXMIX">     2</i>
    <i type="logical" name="NLSPLINE"> F  </i>
   </separator>
   <separator name="electronic startup" >
    <i type="int" name="ISTART">     0</i>
    <i type="int" name="ICHARG">     2</i>
    <i type="int" name="INIWAV">     1</i>
   </separator>
   <separator name="electronic spin" >
    <i type="int" name="ISPIN">     1</i>
    <i type="logical" name="LNONCOLLINEAR"> F  </i>
    <v name="MAGMOM">      1.00000000      1.00000000</v>
    <i name="NUPDOWN">     -1.00000000</i>
    <i type="logical" name="LSORBIT"> F  </i>
    <v name="SAXIS">      0.00000000      0.00000000      1.00000000</v>
    <i type="logical" name="LSPIRAL"> F  </i>
    <v name="QSPIRAL">      0.00000000      0.00000000      0.00000000</v>
    <i type="logical" name="LZEROZ"> F  </i>
   </separator>
   <separator name="electronic exchange-correlation" >
    <i type="logical" name="LASPH"> F  </i>
    <i type="logical" name="LMETAGGA"> F  </i>
   </separator>
   <separator name="electronic convergence" >
    <i type="int" name="NELM">   100</i>
    <i type="int" name="NELMDL">    -5</i>
    <i type="int" name="NELMIN">     2</i>
    <i name="ENINI">    450.00000000</i>
    <separator name="electronic convergence detail" >
     <i type="logical" name="LDIAG"> T  </i>
     <i type="logical" name="LSUBROT"> F  </i>
     <i name="WEIMIN">      0.00100000</i>
     <i name="EBREAK">      0.00000001</i>
     <i name="DEPER">      0.30000000</i>
     <i type="int" name="NRMM">     4</i>
     <i name="TIME">      0.40000000</i>
    </separator>
   </separator>
   <separator name="electronic mixer" >
    <i name="AMIX">      0.40000000</i>
    <i name="BMIX">      1.00000000</i>
    <i name="AMIN">      0.10000000</i>
    <i name="AMIX_MAG">      1.60000000</i>
    <i name="BMIX_MAG">      1.00000000</i>
    <separator name="electronic mixer details" >
     <i type="int" name="IMIX">     4</i>
     <i type="logical" name="MIXFIRST"> F  </i>
     <i type="int" name="MAXMIX">   -45</i>
     <i name="WC">    100.00000000</i>
     <i type="int" name="INIMIX">     1</i>
     <i type="int" name="MIXPRE">     1</i>
     <i type="int" name="MREMOVE">     5</i>
    </separator>
   </separator>
   <separator name="electronic dipolcorrection" >
    <i type="logical" name="LDIPOL"> F  </i>
    <i type="logical" name="LMONO"> F  </i>
    <i type="int" name="IDIPOL">     0</i>
    <i name="EPSILON">      1.00000000</i>
    <v name="DIPOL">   -100.00000000   -100.00000000   -100.00000000</v>
    <i name="EFIELD">      0.00000000</i>
   </separator>
  </separator>
  <separator name="grids" >
   <i type="int" name="NGX">    20</i>
   <i type="int" name="NGY">    20</i>
   <i type="int" name="NGZ">    36</i>
   <i type="int" name="NGXF">    40</i>
   <i type="int" name="NGYF">    40</i>
   <i type="int" name="NGZF">    72</i>
   <i type="logical" name="ADDGRID"> F  </i>
  </separator>
  <separator name="ionic" >
   <i type="int" name="NSW">   100</i>
   <i type="int" name="IBRION">     2</i>
   <i type="int" name="MDALGO">     0</i>
   <i type="int" name="ISIF">     2</i>
   <i name="PSTRESS">      0.00000000</i>
   <i name="EDIFFG">     -0.02000000</i>
   <i type="int" name="NFREE">     1</i>
   <i name="POTIM">      0.50000000</i>
   <i name="SMASS">     -3.00000000</i>
   <i name="SCALEE">      1.00000000</i>
  </separator>
  <separator name="ionic md" >
   <i name="TEBEG">      0.00010000</i>
   <i name="TEEND">      0.00010000</i>
   <i type="int" name="NBLOCK">     1</i>
   <i type="int" name="KBLOCK">   100</i>
   <i type="int" name="NPACO">   256</i>
   <i name="APACO">     10.00000000</i>
  </separator>
  <separator name="symmetry" >
   <i type="int" name="ISYM">     1</i>
   <i name="SYMPREC">      0.00001000</i>
  </separator>
  <separator name="dos" >
   <i type="int" name="LORBIT">    11</i>
   <v name="RWIGS">     -1.00000000</v>
   <i type="int" name="NEDOS">   301</i>
   <i name="EMIN">     10.00000000</i>
   <i name="EMAX">    -10.00000000</i>
   <i name="EFERMI">      0.00000000</i>
  </separator>
  <separator name="writing" >
   <i type="int" name="NWRITE">     2</i>
   <i type="logical" name="LWAVE"> T  </i>
   <i type="logical" name="LDOWNSAMPLE"> F  </i>
   <i type="logical" name="LCHARG"> T  </i>
   <i type="logical" name="LPARD"> F  </i>
   <i type="logical" name="LVTOT"> F  </i>
   <i type="logical" name="LVHAR"> F  </i>
   <i type="logical" name="LELF"> F  </i>
   <i type="logical" name="LOPTICS"> F  </i>
   <v name="STM">      0.00000000      0.00000000      0.00000000      0.00000000      0.00000000      0.00000000      0.00000000</v>
  </separator>
  <separator name="performance" >
   <i type="int" name="NPAR">    24</i>
   <i type="int" name="NSIM">     4</i>
   <i type="int" name="NBLK">    -1</i>
   <i type="logical" name="LPLANE"> T  </i>
   <i type="logical" name="LSCALAPACK"> T  </i>
   <i type="logical" name="LSCAAWARE"> F  </i>
   <i type="logical" name="LSCALU"> F  </i>
   <i type="logical" name="LASYNC"> F  </i>
   <i type="logical" name="LORBITALREAL"> F  </i>
  </separator>
  <separator name="miscellaneous" >
   <i type="int" name="IDIOT">     3</i>
   <i type="int" name="PHON_NSTRUCT">    -1</i>
   <i type="logical" name="LMUSIC"> F  </i>
   <v name="POMASS">    195.08000000</v>
   <v name="DARWINR">      0.00000000</v>
   <v name="DARWINV">      1.00000000</v>
   <i type="logical" name="LCORR"> T  </i>
  </separator>
  <i type="logical" name="GGA_COMPAT"> T  </i>
  <i type="logical" name="LBERRY"> F  </i>
  <i type="int" name="ICORELEVEL">     0</i>
  <i type="logical" name="LDAU"> F  </i>
  <i type="int" name="I_CONSTRAINED_M">     0</i>
  <separator name="electronic exchange-correlation" >
   <i type="string" name="GGA">--</i>
   <i type="int" name="VOSKOWN">     0</i>
   <i type="logical" name="LHFCALC"> F  </i>
   <i type="string" name="PRECFOCK"></i>
   <i type="logical" name="LSYMGRAD"> F  </i>
   <i type="logical" name="LHFONE"> F  </i>
   <i type="logical" name="LRHFCALC"> F  </i>
   <i type="logical" name="LTHOMAS"> F  </i>
   <i type="logical" name="LMODELHF"> F  </i>
   <i type="logical" name="LFOCKACE"> F  </i>
   <i name="ENCUT4O">     -1.00000000</i>
   <i type="int" name="EXXOEP">     0</i>
   <i type="int" name="FOURORBIT">     0</i>
   <i name="AEXX">      0.00000000</i>
   <i name="HFALPHA">      0.00000000</i>
   <i name="MCALPHA">      0.00000000</i>
   <i name="ALDAX">      1.00000000</i>
   <i name="AGGAX">      1.00000000</i>
   <i name="ALDAC">      1.00000000</i>
   <i name="AGGAC">      1.00000000</i>
   <i type="int" name="NKREDX">     1</i>
   <i type="int" name="NKREDY">     1</i>
   <i type="int" name="NKREDZ">     1</i>
   <i type="logical" name="SHIFTRED"> F  </i>
   <i type="logical" name="ODDONLY"> F  </i>
   <i type="logical" name="EVENONLY"> F  </i>
   <i type="int" name="LMAXFOCK">     0</i>
   <i type="int" name="NMAXFOCKAE">     0</i>
   <i type="logical" name="LFOCKAEDFT"> F  </i>
   <i name="HFSCREEN">      0.00000000</i>
   <i name="HFSCREENC">      0.00000000</i>
   <i type="int" name="NBANDSGWLOW">     0</i>
  </separator>
  <separator name="vdW DFT" >
   <i type="logical" name="LUSE_VDW"> F  </i>
   <i name="Zab_VDW">     -0.84910000</i>
   <i name="PARAM1">      0.12340000</i>
   <i name="PARAM2">      1.00000000</i>
   <i name="PARAM3">      0.00000000</i>
  </separator>
  <separator name="model GW" >
   <i type="int" name="MODEL_GW">     0</i>
   <i name="MODEL_EPS0">      9.70432131</i>
   <i name="MODEL_ALPHA">      1.00000000</i>
  </separator>
  <separator name="linear response parameters" >
   <i type="logical" name="LEPSILON"> F  </i>
   <i type="logical" name="LRPA"> F  </i>
   <i type="logical" name="LNABLA"> F  </i>
   <i type="logical" name="LVEL"> F  </i>
   <i name="CSHIFT">      0.10000000</i>
   <i name="OMEGAMAX">     -1.00000000</i>
   <i name="DEG_THRESHOLD">      0.00200000</i>
   <i name="RTIME">     -0.10000000</i>
   <i name="WPLASMAI">      0.00000000</i>
   <v name="DFIELD">      0.00000000      0.00000000      0.00000000</v>
   <v name="WPLASMA">      0.00000000      0.00000000      0.00000000      0.00000000      0.00000000      0.00000000      0.00000000      0.00000000      0.00000000</v>
  </separator>
  <separator name="orbital magnetization" >
   <i type="logical" name="NUCIND"> F  </i>
   <v name="MAGPOS">      0.00000000      0.00000000      0.00000000</v>
   <i type="logical" name="LNICSALL"> T  </i>
   <i type="logical" name="ORBITALMAG"> F  </i>
   <i type="logical" name="LMAGBLOCH"> F  </i>
   <i type="logical" name="LCHIMAG"> F  </i>
   <i type="logical" name="LGAUGE"> T  </i>
   <i type="int" name="MAGATOM">     0</i>
   <v name="MAGDIPOL">      0.00000000      0.00000000      0.00000000</v>
   <v name="AVECCONST">      0.00000000      0.00000000      0.00000000</v>
  </separator>
  <separator name="response functions" >
   <i type="logical" name="LFINITE_TEMPERATURE"> F  </i>
   <i type="logical" name="LADDER"> F  </i>
   <i type="logical" name="LRPAFORCE"> F  </i>
   <i type="logical" name="LFXC"> F  </i>
   <i type="logical" name="LHARTREE"> T  </i>
   <i type="int" name="IBSE">     0</i>
   <v type="int" name="KPOINT">    -1     0     0     0</v>
   <i type="logical" name="LTCTC"> F  </i>
   <i type="logical" name="LTCTE"> F  </i>
   <i type="logical" name="LTETE"> F  </i>
   <i type="logical" name="LTRIPLET"> F  </i>
   <i type="logical" name="LFXCEPS"> F  </i>
   <i type="logical" name="LFXHEG"> F  </i>
   <i type="int" name="NATURALO">     2</i>
   <i type="logical" name="LHOLEGF"> F  </i>
   <i type="logical" name="L2ORDER"> F  </i>
   <i type="logical" name="LDMP1"> F  </i>
   <i type="logical" name="LMP2LT"> F  </i>
   <i type="logical" name="LSMP2LT"> F  </i>
   <i type="logical" name="LGWLF"> F  </i>
   <i name="ENCUTGW">     -2.00000000</i>
   <i name="ENCUTGWSOFT">     -2.00000000</i>
   <i name="ENCUTLF">     -1.00000000</i>
   <i type="logical" name="LESF_SPLINES"> F  </i>
   <i type="int" name="LMAXMP2">    -1</i>
   <i name="SCISSOR">      0.00000000</i>
   <i type="int" name="NOMEGA">     0</i>
   <i type="int" name="NOMEGAR">     0</i>
   <i type="int" name="NBANDSGW">    -1</i>
   <i type="int" name="NBANDSO">    -1</i>
   <i type="int" name="NBANDSV">    -1</i>
   <i type="int" name="NELMGW">     1</i>
   <i type="int" name="NELMHF">     1</i>
   <i type="int" name="DIM">     3</i>
   <i type="int" name="IESPILON">     4</i>
   <i type="int" name="ANTIRES">     0</i>
   <i name="OMEGAMAX">    -30.00000000</i>
   <i name="OMEGAMIN">    -30.00000000</i>
   <i name="OMEGATL">   -200.00000000</i>
   <i type="int" name="OMEGAGRID">     0</i>
   <i name="CSHIFT">     -0.10000000</i>
   <i type="logical" name="LSELFENERGY"> F  </i>
   <i type="logical" name="LSPECTRAL"> F  </i>
   <i type="logical" name="LSPECTRALGW"> F  </i>
   <i type="logical" name="LSINGLES"> F  </i>
   <i type="logical" name="LFERMIGW"> F  </i>
   <i type="logical" name="ODDONLYGW"> F  </i>
   <i type="logical" name="EVENONLYGW"> F  </i>
   <i type="int" name="NKREDLFX">     1</i>
   <i type="int" name="NKREDLFY">     1</i>
   <i type="int" name="NKREDLFZ">     1</i>
   <i type="int" name="MAXMEM">  2800</i>
   <i type="int" name="TELESCOPE">     0</i>
   <i type="int" name="NTAUPAR">    -1</i>
   <i type="int" name="NOMEGAPAR">    -1</i>
   <i name="DAMP_NEWTON">      0.80000001</i>
   <i name="LAMBDA">      1.00000000</i>
  </separator>
  <separator name="External order field" >
   <i name="OFIELD_KAPPA">      0.00000000</i>
   <v name="OFIELD_K">      0.00000000      0.00000000      0.00000000</v>
   <i name="OFIELD_Q6_NEAR">      0.00000000</i>
   <i name="OFIELD_Q6_FAR">      0.00000000</i>
   <i name="OFIELD_A">      0.00000000</i>
  </separator>
  <separator name="optional k-points parameters" >
   <i type="int" name="KPOINTS_OPT_MODE">     1</i>
   <i type="logical" name="LKPOINTS_OPT"> F  </i>
  </separator>
 </parameters>
 <atominfo>
  <atoms>       2 </atoms>
  <types>       1 </types>
  <array name="atoms" >
   <dimension dim="1">ion</dimension>
   <field type="string">element</field>
   <field type="int">atomtype</field>
   <set>
    <rc><c>Pt</c><c>   1</c></rc>
    <rc><c>Pt</c><c>   1</c></rc>
   </set>
  </array>
  <array name="atomtypes" >
   <dimension dim="1">type</dimension>
   <field type="int">atomspertype</field>
   <field type="string">element</field>
   <field>mass</field>
   <field>valence</field>
   <field type="string">pseudopotential</field>
   <set>
    <rc><c>   2</c><c>Pt</c><c>    195.08000000</c><c>     16.00000000</c><c>  PAW_PBE Pt_pv 12Dec2005               </c></rc>
   </set>
  </array>
 </atominfo>
 <structure name="initialpos" >
  <crystal>
   <varray name="basis" >
    <v>       2.78322699       0.00000000       0.00000000 </v>
    <v>      -1.39161349       2.41034527       0.00000000 </v>
    <v>       0.00000000       0.00000000       4.82187589 </v>
   </varray>
   <i name="volume">     32.34773768 </i>
   <varray name="rec_basis" >
    <v>       0.35929517       0.20743916       0.00000000 </v>
    <v>       0.00000000       0.41487832       0.00000000 </v>
    <v>       0.00000000       0.00000000       0.20738817 </v>
   </varray>
  </crystal>
  <varray name="positions" >
   <v>       0.00000000       0.00000000       0.00000000 </v>
   <v>       0.33333333       0.66666667       0.50000000 </v>
  </varray>
 </structure>
 <calculation>
  <scstep>
   <time name="dav">    0.32    0.32</time>
   <time name="total">    0.32    0.32</time>
   <energy>
    <i name="alphaZ">    296.69074028 </i>
    <i name="ewald">  -4207.88492405 </i>
    <i name="hartreedc">   -834.96872847 </i>
    <i name="XCdc">    127.10293968 </i>
    <i name="pawpsdc">   4131.50523274 </i>
    <i name="pawaedc">  -4061.67189606 </i>
    <i name="eentropy">     -0.00219233 </i>
    <i name="bandstr">   -161.36999978 </i>
    <i name="atom">   4856.42966544 </i>
    <i name="e_fr_energy">    145.83083745 </i>
    <i name="e_wo_entrp">    145.83302978 </i>
    <i name="e_0_energy">    145.83193362 </i>
   </energy>
  </scstep>
  <scstep>
   <time name="dav">    0.32    0.32</time>
   <time name="total">    0.32    0.32</time>
   <energy>
    <i name="e_fr_energy">    -11.21566514 </i>
    <i name="e_wo_entrp">    -11.21110928 </i>
    <i name="e_0_energy">    -11.21338721 </i>
   </energy>
  </scstep>
  <scstep>
   <time name="dav">    0.49    0.50</time>
   <time name="total">    0.49    0.50</time>
   <energy>
    <i name="e_fr_energy">    -12.73524121 </i>
    <i name="e_wo_entrp">    -12.73066110 </i>
    <i name="e_0_energy">    -12.73295115 </i>
   </energy>
  </scstep>
  <scstep>
   <time name="dav">    0.57    0.57</time>
   <time name="total">    0.57    0.57</time>
   <energy>
    <i name="e_fr_energy">    -12.73981600 </i>
    <i name="e_wo_entrp">    -12.73524649 </i>
    <i name="e_0_energy">    -12.73753125 </i>
   </energy>
  </scstep>
  <scstep>
   <time name="dav">    0.56    0.56</time>
   <time name="total">    0.58    0.58</time>
   <energy>
    <i name="e_fr_energy">    -12.73981858 </i>
    <i name="e_wo_entrp">    -12.73524911 </i>
    <i name="e_0_energy">    -12.73753385 </i>
   </energy>
  </scstep>
  <scstep>
   <time name="dav">    0.34    0.34</time>
   <time name="total">    0.37    0.37</time>
   <energy>
    <i name="e_fr_energy">    -12.05763556 </i>
    <i name="e_wo_entrp">    -12.05295960 </i>
    <i name="e_0_energy">    -12.05529758 </i>
   </energy>
  </scstep>
  <scstep>
   <time name="dav">    0.50    0.50</time>
   <time name="total">    0.53    0.53</time>
   <energy>
    <i name="e_fr_energy">    -12.02719718 </i>
    <i name="e_wo_entrp">    -12.02223316 </i>
    <i name="e_0_energy">    -12.02471517 </i>
   </energy>
  </scstep>
  <scstep>
   <time name="dav">    0.35    0.36</time>
   <time name="total">    0.38    0.38</time>
   <energy>
    <i name="e_fr_energy">    -12.02505783 </i>
    <i name="e_wo_entrp">    -12.02002315 </i>
    <i name="e_0_energy">    -12.02254049 </i>
   </energy>
  </scstep>
  <scstep>
   <time name="dav">    0.51    0.51</time>
   <time name="total">    0.54    0.54</time>
   <energy>
    <i name="e_fr_energy">    -12.02490171 </i>
    <i name="e_wo_entrp">    -12.01989925 </i>
    <i name="e_0_energy">    -12.02240048 </i>
   </energy>
  </scstep>
  <scstep>
   <time name="dav">    0.41    0.41</time>
   <time name="total">    0.44    0.44</time>
   <energy>
    <i name="e_fr_energy">    -12.02491693 </i>
    <i name="e_wo_entrp">    -12.01991889 </i>
    <i name="e_0_energy">    -12.02241791 </i>
   </energy>
  </scstep>
  <scstep>
   <time name="dav">    0.39    0.39</time>
   <time name="total">    0.39    0.39</time>
   <energy>
    <i name="alphaZ">    296.69074028 </i>
    <i name="ewald">  -4207.88492405 </i>
    <i name="hartreedc">   -796.07450672 </i>
    <i name="XCdc">    125.39641903 </i>
    <i name="pawpsdc">   4568.50621630 </i>
    <i name="pawaedc">  -4503.44871782 </i>
    <i name="eentropy">     -0.00499890 </i>
    <i name="bandstr">   -351.63481018 </i>
    <i name="atom">   4856.42966544 </i>
    <i name="e_fr_energy">    -12.02491662 </i>
    <i name="e_wo_entrp">    -12.01991772 </i>
    <i name="e_0_energy">    -12.02241717 </i>
   </energy>
  </scstep>
  <structure>
   <crystal>
    <varray name="basis" >
     <v>       2.78322699       0.00000000       0.00000000 </v>
     <v>      -1.39161349       2.41034527       0.00000000 </v>
     <v>       0.00000000       0.00000000       4.82187589 </v>
    </varray>
    <i name="volume">     32.34773768 </i>
    <varray name="rec_basis" >
     <v>       0.35929517       0.20743916       0.00000000 </v>
     <v>       0.00000000       0.41487832       0.00000000 </v>
     <v>       0.00000000       0.00000000       0.20738817 </v>
    </varray>
   </crystal>
   <varray name="positions" >
    <v>       0.00000000       0.00000000       0.00000000 </v>
    <v>       0.33333333       0.66666667       0.50000000 </v>
   </varray>
  </structure>
  <varray name="forces" >
   <v>      -0.00000000       0.00000000       0.00000000 </v>
   <v>       0.00000000       0.00000000       0.00000000 </v>
  </varray>
  <varray name="stress" >
   <v>     -80.01312258      -0.00000000      -0.00000000 </v>
   <v>       0.00000000     -80.01312258       0.00000000 </v>
   <v>       0.00000000       0.00000000     -70.40804058 </v>
  </varray>
  <energy>
   <i name="e_fr_energy">    -12.02491662 </i>
   <i name="e_wo_entrp">    -12.01991772 </i>
   <i name="e_0_energy">    -12.02241717 </i>
  </energy>
  <time name="totalsc">    5.30    5.49</time>
  <eigenvalues>
   <array>
    <dimension dim="1">band</dimension>
    <dimension dim="2">kpoint</dimension>
    <dimension dim="3">spin</dimension>
    <field>eigene</field>
    <field>occ</field>
    <set>
     <set comment="spin 1">
      <set comment="kpoint 1">
       <r>  -41.8145    1.0000 </r>
       <r>  -41.6705    1.0000 </r>
       <r>  -41.6705    1.0000 </r>
       <r>  -41.6332    1.0000 </r>
       <r>  -41.6332    1.0000 </r>
       <r>  -41.5126    1.0000 </r>
       <r>    1.2343    1.0000 </r>
       <r>    3.8650    1.0000 </r>
       <r>    6.9279    1.0000 </r>
       <r>    7.4049    1.0000 </r>
       <r>    7.4050    1.0000 </r>
       <r>    7.7574    1.0000 </r>
       <r>    7.7574    1.0000 </r>
       <r>    8.9683    1.0000 </r>
       <r>    8.9683    1.0000 </r>
       <r>   10.1020    1.0000 </r>
       <r>   10.4932    1.0000 </r>
       <r>   10.4932    1.0000 </r>
       <r>   15.2454    0.0000 </r>
       <r>   25.8149    0.0000 </r>
       <r>   26.3985    0.0000 </r>
       <r>   27.9346    0.0000 </r>
       <r>   31.4541    0.0000 </r>
       <r>   31.4541    0.0000 </r>
      </set>
      <set comment="kpoint 2">
       <r>  -41.8036    1.0000 </r>
       <r>  -41.7026    1.0000 </r>
       <r>  -41.6796    1.0000 </r>
       <r>  -41.6665    1.0000 </r>
       <r>  -41.6397    1.0000 </r>
       <r>  -41.5150    1.0000 </r>
       <r>    1.5870    1.0000 </r>
       <r>    4.1832    1.0000 </r>
       <r>    6.8616    1.0000 </r>
       <r>    7.4182    1.0000 </r>
       <r>    7.6164    1.0000 </r>
       <r>    7.6712    1.0000 </r>
       <r>    8.0100    1.0000 </r>
       <r>    8.4282    1.0000 </r>
       <r>    8.8057    1.0000 </r>
       <r>    8.9668    1.0000 </r>
       <r>   10.5527    0.9999 </r>
       <r>   12.2493    0.0000 </r>
       <r>   15.2129    0.0000 </r>
       <r>   26.2017    0.0000 </r>
       <r>   26.9116    0.0000 </r>
       <r>   28.1839    0.0000 </r>
       <r>   29.9105    0.0000 </r>
       <r>   29.9651    0.0000 </r>
      </set>
      <set comment="kpoint 3">
       <r>  -41.7887    1.0000 </r>
       <r>  -41.7739    1.0000 </r>
       <r>  -41.7535    1.0000 </r>
       <r>  -41.7040    1.0000 </r>
       <r>  -41.6578    1.0000 </r>
       <r>  -41.5231    1.0000 </r>
       <r>    2.5510    1.0000 </r>
       <r>    4.8865    1.0000 </r>
       <r>    6.6409    1.0000 </r>
       <r>    7.1158    1.0000 </r>
       <r>    7.1471    1.0000 </r>
       <r>    8.0171    1.0000 </r>
       <r>    8.4228    1.0000 </r>
       <r>    8.4437    1.0000 </r>
       <r>    8.4677    1.0000 </r>
       <r>    8.7185    1.0000 </r>
       <r>   10.6480    0.8726 </r>
       <r>   14.3743    0.0000 </r>
       <r>   15.1565    0.0000 </r>
       <r>   24.5202    0.0000 </r>
       <r>   27.5104    0.0000 </r>
       <r>   27.5727    0.0000 </r>
       <r>   28.5564    0.0000 </r>
       <r>   28.7850    0.0000 </r>
      </set>
      <set comment="kpoint 4">
       <r>  -41.8954    1.0000 </r>
       <r>  -41.8583    1.0000 </r>
       <r>  -41.7337    1.0000 </r>
       <r>  -41.7318    1.0000 </r>
       <r>  -41.6812    1.0000 </r>
       <r>  -41.5379    1.0000 </r>
       <r>    3.7407    1.0000 </r>
       <r>    5.0199    1.0000 </r>
       <r>    6.0977    1.0000 </r>
       <r>    6.8954    1.0000 </r>
       <r>    7.2376    1.0000 </r>
       <r>    7.9792    1.0000 </r>
       <r>    8.0690    1.0000 </r>
       <r>    9.1212    1.0000 </r>
       <r>    9.4992    1.0000 </r>
       <r>    9.7200    1.0000 </r>
       <r>   10.7000    0.3705 </r>
       <r>   15.2962    0.0000 </r>
       <r>   16.5463    0.0000 </r>
       <r>   20.8065    0.0000 </r>
       <r>   25.2363    0.0000 </r>
       <r>   25.9377    0.0000 </r>
       <r>   27.2537    0.0000 </r>
       <r>   28.5111    0.0000 </r>
      </set>
      <set comment="kpoint 5">
       <r>  -41.9809    1.0000 </r>
       <r>  -41.9422    1.0000 </r>
       <r>  -41.7576    1.0000 </r>
       <r>  -41.6996    1.0000 </r>
       <r>  -41.6898    1.0000 </r>
       <r>  -41.5581    1.0000 </r>
       <r>    4.4102    1.0000 </r>
       <r>    4.7175    1.0000 </r>
       <r>    5.4679    1.0000 </r>
       <r>    7.3953    1.0000 </r>
       <r>    7.6213    1.0000 </r>
       <r>    7.8024    1.0000 </r>
       <r>    8.0208    1.0000 </r>
       <r>   10.5326    1.0000 </r>
       <r>   10.7025    0.3438 </r>
       <r>   10.7119    0.2524 </r>
       <r>   10.9251    0.0000 </r>
       <r>   16.1259    0.0000 </r>
       <r>   17.1969    0.0000 </r>
       <r>   18.4905    0.0000 </r>
       <r>   22.8550    0.0000 </r>
       <r>   23.3777    0.0000 </r>
       <r>   24.5549    0.0000 </r>
       <r>   27.2421    0.0000 </r>
      </set>
      <set comment="kpoint 6">
       <r>  -42.0132    1.0000 </r>
       <r>  -41.9741    1.0000 </r>
       <r>  -41.7667    1.0000 </r>
       <r>  -41.7068    1.0000 </r>
       <r>  -41.6692    1.0000 </r>
       <r>  -41.5706    1.0000 </r>
       <r>    4.5226    1.0000 </r>
       <r>    4.5790    1.0000 </r>
       <r>    5.2548    1.0000 </r>
       <r>    7.4917    1.0000 </r>
       <r>    7.7069    1.0000 </r>
       <r>    7.8981    1.0000 </r>
       <r>    8.2238    1.0000 </r>
       <r>   10.7112    0.2584 </r>
       <r>   10.9657    0.0000 </r>
       <r>   11.1590    0.0000 </r>
       <r>   12.9185    0.0000 </r>
       <r>   14.3505    0.0000 </r>
       <r>   17.8478    0.0000 </r>
       <r>   19.4391    0.0000 </r>
       <r>   19.9869    0.0000 </r>
       <r>   22.6232    0.0000 </r>
       <r>   23.8779    0.0000 </r>
       <r>   26.6879    0.0000 </r>
      </set>
      <set comment="kpoint 7">
       <r>  -41.7836    1.0000 </r>
       <r>  -41.7567    1.0000 </r>
       <r>  -41.7329    1.0000 </r>
       <r>  -41.6917    1.0000 </r>
       <r>  -41.6570    1.0000 </r>
       <r>  -41.5206    1.0000 </r>
       <r>    2.2531    1.0000 </r>
       <r>    4.7396    1.0000 </r>
       <r>    6.6033    1.0000 </r>
       <r>    7.3340    1.0000 </r>
       <r>    7.5054    1.0000 </r>
       <r>    7.6327    1.0000 </r>
       <r>    8.2320    1.0000 </r>
       <r>    8.2524    1.0000 </r>
       <r>    8.5744    1.0000 </r>
       <r>    8.8712    1.0000 </r>
       <r>   10.5738    0.9994 </r>
       <r>   13.8119    0.0000 </r>
       <r>   15.1702    0.0000 </r>
       <r>   26.0034    0.0000 </r>
       <r>   26.5093    0.0000 </r>
       <r>   27.7920    0.0000 </r>
       <r>   28.7612    0.0000 </r>
       <r>   29.4228    0.0000 </r>
      </set>
      <set comment="kpoint 8">
       <r>  -41.8458    1.0000 </r>
       <r>  -41.8222    1.0000 </r>
       <r>  -41.7474    1.0000 </r>
       <r>  -41.7259    1.0000 </r>
       <r>  -41.6841    1.0000 </r>
       <r>  -41.5320    1.0000 </r>
       <r>    3.4006    1.0000 </r>
       <r>    5.3408    1.0000 </r>
       <r>    6.4303    1.0000 </r>
       <r>    6.4928    1.0000 </r>
       <r>    7.0742    1.0000 </r>
       <r>    7.7810    1.0000 </r>
       <r>    8.2197    1.0000 </r>
       <r>    8.5201    1.0000 </r>
       <r>    9.2468    1.0000 </r>
       <r>    9.6321    1.0000 </r>
       <r>   10.5754    0.9993 </r>
       <r>   15.2307    0.0000 </r>
       <r>   15.8546    0.0000 </r>
       <r>   22.6967    0.0000 </r>
       <r>   24.6086    0.0000 </r>
       <r>   26.9141    0.0000 </r>
       <r>   28.7544    0.0000 </r>
       <r>   29.2606    0.0000 </r>
      </set>
      <set comment="kpoint 9">
       <r>  -41.9385    1.0000 </r>
       <r>  -41.9059    1.0000 </r>
       <r>  -41.7616    1.0000 </r>
       <r>  -41.7101    1.0000 </r>
       <r>  -41.7045    1.0000 </r>
       <r>  -41.5504    1.0000 </r>
       <r>    4.4511    1.0000 </r>
       <r>    5.1179    1.0000 </r>
       <r>    5.7480    1.0000 </r>
       <r>    6.9074    1.0000 </r>
       <r>    7.4973    1.0000 </r>
       <r>    7.5046    1.0000 </r>
       <r>    8.0512    1.0000 </r>
       <r>    9.2727    1.0000 </r>
       <r>   10.2830    1.0000 </r>
       <r>   10.5635    0.9998 </r>
       <r>   10.9998    0.0000 </r>
       <r>   15.8339    0.0000 </r>
       <r>   17.9519    0.0000 </r>
       <r>   18.9099    0.0000 </r>
       <r>   22.5379    0.0000 </r>
       <r>   25.4439    0.0000 </r>
       <r>   25.5483    0.0000 </r>
       <r>   27.6427    0.0000 </r>
      </set>
      <set comment="kpoint 10">
       <r>  -41.9957    1.0000 </r>
       <r>  -41.9570    1.0000 </r>
       <r>  -41.7829    1.0000 </r>
       <r>  -41.7263    1.0000 </r>
       <r>  -41.6694    1.0000 </r>
       <r>  -41.5708    1.0000 </r>
       <r>    4.7768    1.0000 </r>
       <r>    4.8626    1.0000 </r>
       <r>    5.3609    1.0000 </r>
       <r>    7.4449    1.0000 </r>
       <r>    7.6659    1.0000 </r>
       <r>    7.6701    1.0000 </r>
       <r>    7.9870    1.0000 </r>
       <r>   10.4519    1.0000 </r>
       <r>   10.5480    1.0000 </r>
       <r>   10.8115    0.0002 </r>
       <r>   12.6585    0.0000 </r>
       <r>   15.5526    0.0000 </r>
       <r>   17.4982    0.0000 </r>
       <r>   19.6079    0.0000 </r>
       <r>   20.3391    0.0000 </r>
       <r>   22.6666    0.0000 </r>
       <r>   24.3288    0.0000 </r>
       <r>   26.6051    0.0000 </r>
      </set>
      <set comment="kpoint 11">
       <r>  -41.8981    1.0000 </r>
       <r>  -41.8977    1.0000 </r>
       <r>  -41.7664    1.0000 </r>
       <r>  -41.7296    1.0000 </r>
       <r>  -41.7099    1.0000 </r>
       <r>  -41.5476    1.0000 </r>
       <r>    4.5892    1.0000 </r>
       <r>    5.9280    1.0000 </r>
       <r>    5.9429    1.0000 </r>
       <r>    5.9977    1.0000 </r>
       <r>    7.2798    1.0000 </r>
       <r>    7.3148    1.0000 </r>
       <r>    8.2367    1.0000 </r>
       <r>    8.5667    1.0000 </r>
       <r>   10.2689    1.0000 </r>
       <r>   10.4049    1.0000 </r>
       <r>   11.0775    0.0000 </r>
       <r>   15.8005    0.0000 </r>
       <r>   17.8223    0.0000 </r>
       <r>   20.3626    0.0000 </r>
       <r>   21.2819    0.0000 </r>
       <r>   26.1816    0.0000 </r>
       <r>   27.2052    0.0000 </r>
       <r>   27.7638    0.0000 </r>
      </set>
      <set comment="kpoint 12">
       <r>  -41.9540    1.0000 </r>
       <r>  -41.9275    1.0000 </r>
       <r>  -41.8128    1.0000 </r>
       <r>  -41.7680    1.0000 </r>
       <r>  -41.6698    1.0000 </r>
       <r>  -41.5701    1.0000 </r>
       <r>    5.3707    1.0000 </r>
       <r>    5.5735    1.0000 </r>
       <r>    5.5975    1.0000 </r>
       <r>    6.7004    1.0000 </r>
       <r>    7.1757    1.0000 </r>
       <r>    7.7718    1.0000 </r>
       <r>    7.8097    1.0000 </r>
       <r>    9.3249    1.0000 </r>
       <r>   10.2746    1.0000 </r>
       <r>   10.6896    0.4855 </r>
       <r>   12.6977    0.0000 </r>
       <r>   16.7847    0.0000 </r>
       <r>   17.7388    0.0000 </r>
       <r>   19.3716    0.0000 </r>
       <r>   19.8743    0.0000 </r>
       <r>   24.1876    0.0000 </r>
       <r>   25.3438    0.0000 </r>
       <r>   26.2893    0.0000 </r>
      </set>
      <set comment="kpoint 13">
       <r>  -41.9748    1.0000 </r>
       <r>  -41.9360    1.0000 </r>
       <r>  -41.8356    1.0000 </r>
       <r>  -41.7831    1.0000 </r>
       <r>  -41.6473    1.0000 </r>
       <r>  -41.5860    1.0000 </r>
       <r>    5.4434    1.0000 </r>
       <r>    5.4513    1.0000 </r>
       <r>    5.4897    1.0000 </r>
       <r>    7.2551    1.0000 </r>
       <r>    7.3070    1.0000 </r>
       <r>    7.4119    1.0000 </r>
       <r>    8.0673    1.0000 </r>
       <r>   10.0534    1.0000 </r>
       <r>   10.2269    1.0000 </r>
       <r>   10.5046    1.0000 </r>
       <r>   14.2811    0.0000 </r>
       <r>   14.7609    0.0000 </r>
       <r>   18.0824    0.0000 </r>
       <r>   19.6090    0.0000 </r>
       <r>   21.0753    0.0000 </r>
       <r>   22.0349    0.0000 </r>
       <r>   24.4770    0.0000 </r>
       <r>   25.8434    0.0000 </r>
      </set>
      <set comment="kpoint 14">
       <r>  -41.9420    1.0000 </r>
       <r>  -41.9123    1.0000 </r>
       <r>  -41.8696    1.0000 </r>
       <r>  -41.8315    1.0000 </r>
       <r>  -41.6347    1.0000 </r>
       <r>  -41.5963    1.0000 </r>
       <r>    5.5340    1.0000 </r>
       <r>    5.9130    1.0000 </r>
       <r>    6.1631    1.0000 </r>
       <r>    6.5898    1.0000 </r>
       <r>    7.1302    1.0000 </r>
       <r>    7.3882    1.0000 </r>
       <r>    8.1536    1.0000 </r>
       <r>    9.6701    1.0000 </r>
       <r>   10.0687    1.0000 </r>
       <r>   10.3526    1.0000 </r>
       <r>   14.2762    0.0000 </r>
       <r>   15.5431    0.0000 </r>
       <r>   16.9719    0.0000 </r>
       <r>   20.4039    0.0000 </r>
       <r>   21.9727    0.0000 </r>
       <r>   23.1509    0.0000 </r>
       <r>   23.9346    0.0000 </r>
       <r>   24.3661    0.0000 </r>
      </set>
      <set comment="kpoint 15">
       <r>  -41.8027    1.0000 </r>
       <r>  -41.6691    1.0000 </r>
       <r>  -41.6691    1.0000 </r>
       <r>  -41.6346    1.0000 </r>
       <r>  -41.6346    1.0000 </r>
       <r>  -41.5240    1.0000 </r>
       <r>    1.3653    1.0000 </r>
       <r>    3.8442    1.0000 </r>
       <r>    6.8961    1.0000 </r>
       <r>    7.3860    1.0000 </r>
       <r>    7.3860    1.0000 </r>
       <r>    7.7201    1.0000 </r>
       <r>    7.7201    1.0000 </r>
       <r>    9.0628    1.0000 </r>
       <r>    9.0628    1.0000 </r>
       <r>    9.4836    1.0000 </r>
       <r>   10.4667    1.0000 </r>
       <r>   10.4667    1.0000 </r>
       <r>   16.1141    0.0000 </r>
       <r>   25.3626    0.0000 </r>
       <r>   26.8780    0.0000 </r>
       <r>   27.6551    0.0000 </r>
       <r>   30.9746    0.0000 </r>
       <r>   30.9746    0.0000 </r>
      </set>
      <set comment="kpoint 16">
       <r>  -41.7934    1.0000 </r>
       <r>  -41.7006    1.0000 </r>
       <r>  -41.6782    1.0000 </r>
       <r>  -41.6687    1.0000 </r>
       <r>  -41.6414    1.0000 </r>
       <r>  -41.5255    1.0000 </r>
       <r>    1.7154    1.0000 </r>
       <r>    4.1688    1.0000 </r>
       <r>    6.8648    1.0000 </r>
       <r>    7.3351    1.0000 </r>
       <r>    7.5181    1.0000 </r>
       <r>    7.6432    1.0000 </r>
       <r>    7.9685    1.0000 </r>
       <r>    8.3843    1.0000 </r>
       <r>    8.9172    1.0000 </r>
       <r>    8.9565    1.0000 </r>
       <r>   10.5158    1.0000 </r>
       <r>   11.7035    0.0000 </r>
       <r>   16.2062    0.0000 </r>
       <r>   25.8291    0.0000 </r>
       <r>   27.2713    0.0000 </r>
       <r>   27.9860    0.0000 </r>
       <r>   29.3377    0.0000 </r>
       <r>   29.9082    0.0000 </r>
      </set>
      <set comment="kpoint 17">
       <r>  -41.7962    1.0000 </r>
       <r>  -41.7592    1.0000 </r>
       <r>  -41.7520    1.0000 </r>
       <r>  -41.7024    1.0000 </r>
       <r>  -41.6598    1.0000 </r>
       <r>  -41.5313    1.0000 </r>
       <r>    2.6649    1.0000 </r>
       <r>    4.8945    1.0000 </r>
       <r>    6.6716    1.0000 </r>
       <r>    6.8646    1.0000 </r>
       <r>    7.1561    1.0000 </r>
       <r>    7.9103    1.0000 </r>
       <r>    8.2666    1.0000 </r>
       <r>    8.5986    1.0000 </r>
       <r>    8.6680    1.0000 </r>
       <r>    8.7665    1.0000 </r>
       <r>   10.5903    0.9972 </r>
       <r>   13.1819    0.0000 </r>
       <r>   16.6309    0.0000 </r>
       <r>   24.6201    0.0000 </r>
       <r>   27.2760    0.0000 </r>
       <r>   27.7288    0.0000 </r>
       <r>   28.0494    0.0000 </r>
       <r>   29.1722    0.0000 </r>
      </set>
      <set comment="kpoint 18">
       <r>  -41.8968    1.0000 </r>
       <r>  -41.8620    1.0000 </r>
       <r>  -41.7317    1.0000 </r>
       <r>  -41.7215    1.0000 </r>
       <r>  -41.6831    1.0000 </r>
       <r>  -41.5435    1.0000 </r>
       <r>    3.7952    1.0000 </r>
       <r>    5.0466    1.0000 </r>
       <r>    6.0765    1.0000 </r>
       <r>    6.7383    1.0000 </r>
       <r>    7.2630    1.0000 </r>
       <r>    8.0804    1.0000 </r>
       <r>    8.1285    1.0000 </r>
       <r>    9.1728    1.0000 </r>
       <r>    9.5203    1.0000 </r>
       <r>    9.6734    1.0000 </r>
       <r>   10.6329    0.9414 </r>
       <r>   14.2469    0.0000 </r>
       <r>   17.6344    0.0000 </r>
       <r>   21.0717    0.0000 </r>
       <r>   25.4697    0.0000 </r>
       <r>   25.5757    0.0000 </r>
       <r>   27.0813    0.0000 </r>
       <r>   28.9502    0.0000 </r>
      </set>
      <set comment="kpoint 19">
       <r>  -41.9820    1.0000 </r>
       <r>  -41.9456    1.0000 </r>
       <r>  -41.7553    1.0000 </r>
       <r>  -41.7020    1.0000 </r>
       <r>  -41.6826    1.0000 </r>
       <r>  -41.5614    1.0000 </r>
       <r>    4.3494    1.0000 </r>
       <r>    4.7269    1.0000 </r>
       <r>    5.6147    1.0000 </r>
       <r>    6.7870    1.0000 </r>
       <r>    7.8252    1.0000 </r>
       <r>    7.8840    1.0000 </r>
       <r>    8.5557    1.0000 </r>
       <r>   10.4608    1.0000 </r>
       <r>   10.5476    1.0000 </r>
       <r>   10.7993    0.0008 </r>
       <r>   10.8404    0.0000 </r>
       <r>   15.2867    0.0000 </r>
       <r>   17.2408    0.0000 </r>
       <r>   19.2943    0.0000 </r>
       <r>   22.5895    0.0000 </r>
       <r>   23.6461    0.0000 </r>
       <r>   24.8703    0.0000 </r>
       <r>   27.4678    0.0000 </r>
      </set>
      <set comment="kpoint 20">
       <r>  -42.0142    1.0000 </r>
       <r>  -41.9778    1.0000 </r>
       <r>  -41.7645    1.0000 </r>
       <r>  -41.7093    1.0000 </r>
       <r>  -41.6630    1.0000 </r>
       <r>  -41.5729    1.0000 </r>
       <r>    4.4320    1.0000 </r>
       <r>    4.5510    1.0000 </r>
       <r>    5.4676    1.0000 </r>
       <r>    6.8495    1.0000 </r>
       <r>    7.7934    1.0000 </r>
       <r>    7.9698    1.0000 </r>
       <r>    8.9947    1.0000 </r>
       <r>   10.5415    1.0000 </r>
       <r>   10.9853    0.0000 </r>
       <r>   11.1527    0.0000 </r>
       <r>   12.6958    0.0000 </r>
       <r>   14.2470    0.0000 </r>
       <r>   17.6989    0.0000 </r>
       <r>   18.4119    0.0000 </r>
       <r>   21.2668    0.0000 </r>
       <r>   22.9045    0.0000 </r>
       <r>   24.0130    0.0000 </r>
       <r>   26.9657    0.0000 </r>
      </set>
      <set comment="kpoint 21">
       <r>  -41.7820    1.0000 </r>
       <r>  -41.7468    1.0000 </r>
       <r>  -41.7340    1.0000 </r>
       <r>  -41.6913    1.0000 </r>
       <r>  -41.6585    1.0000 </r>
       <r>  -41.5291    1.0000 </r>
       <r>    2.3739    1.0000 </r>
       <r>    4.7402    1.0000 </r>
       <r>    6.6335    1.0000 </r>
       <r>    7.0694    1.0000 </r>
       <r>    7.4162    1.0000 </r>
       <r>    7.6383    1.0000 </r>
       <r>    8.1667    1.0000 </r>
       <r>    8.3805    1.0000 </r>
       <r>    8.6613    1.0000 </r>
       <r>    8.9383    1.0000 </r>
       <r>   10.5248    1.0000 </r>
       <r>   12.8395    0.0000 </r>
       <r>   16.4713    0.0000 </r>
       <r>   25.9765    0.0000 </r>
       <r>   26.5831    0.0000 </r>
       <r>   27.6460    0.0000 </r>
       <r>   28.3051    0.0000 </r>
       <r>   29.6887    0.0000 </r>
      </set>
      <set comment="kpoint 22">
       <r>  -41.8486    1.0000 </r>
       <r>  -41.8246    1.0000 </r>
       <r>  -41.7354    1.0000 </r>
       <r>  -41.7244    1.0000 </r>
       <r>  -41.6857    1.0000 </r>
       <r>  -41.5383    1.0000 </r>
       <r>    3.4907    1.0000 </r>
       <r>    5.3732    1.0000 </r>
       <r>    6.3176    1.0000 </r>
       <r>    6.4946    1.0000 </r>
       <r>    7.0477    1.0000 </r>
       <r>    7.6823    1.0000 </r>
       <r>    8.3645    1.0000 </r>
       <r>    8.5071    1.0000 </r>
       <r>    9.3536    1.0000 </r>
       <r>    9.5820    1.0000 </r>
       <r>   10.5266    1.0000 </r>
       <r>   13.9748    0.0000 </r>
       <r>   17.2817    0.0000 </r>
       <r>   22.8738    0.0000 </r>
       <r>   24.7368    0.0000 </r>
       <r>   26.7990    0.0000 </r>
       <r>   28.1069    0.0000 </r>
       <r>   29.8846    0.0000 </r>
      </set>
      <set comment="kpoint 23">
       <r>  -41.9395    1.0000 </r>
       <r>  -41.9092    1.0000 </r>
       <r>  -41.7601    1.0000 </r>
       <r>  -41.7128    1.0000 </r>
       <r>  -41.6950    1.0000 </r>
       <r>  -41.5543    1.0000 </r>
       <r>    4.4392    1.0000 </r>
       <r>    5.1512    1.0000 </r>
       <r>    5.8065    1.0000 </r>
       <r>    6.6441    1.0000 </r>
       <r>    7.4648    1.0000 </r>
       <r>    7.8331    1.0000 </r>
       <r>    8.0650    1.0000 </r>
       <r>    9.2885    1.0000 </r>
       <r>   10.3281    1.0000 </r>
       <r>   10.3839    1.0000 </r>
       <r>   11.0563    0.0000 </r>
       <r>   15.0544    0.0000 </r>
       <r>   18.1935    0.0000 </r>
       <r>   19.6698    0.0000 </r>
       <r>   22.6393    0.0000 </r>
       <r>   24.7912    0.0000 </r>
       <r>   26.0403    0.0000 </r>
       <r>   27.8203    0.0000 </r>
      </set>
      <set comment="kpoint 24">
       <r>  -41.9964    1.0000 </r>
       <r>  -41.9606    1.0000 </r>
       <r>  -41.7814    1.0000 </r>
       <r>  -41.7286    1.0000 </r>
       <r>  -41.6625    1.0000 </r>
       <r>  -41.5721    1.0000 </r>
       <r>    4.6531    1.0000 </r>
       <r>    4.8602    1.0000 </r>
       <r>    5.6039    1.0000 </r>
       <r>    6.7920    1.0000 </r>
       <r>    7.5460    1.0000 </r>
       <r>    8.0886    1.0000 </r>
       <r>    8.4844    1.0000 </r>
       <r>   10.3463    1.0000 </r>
       <r>   10.4572    1.0000 </r>
       <r>   10.8519    0.0000 </r>
       <r>   12.6154    0.0000 </r>
       <r>   15.3785    0.0000 </r>
       <r>   17.1264    0.0000 </r>
       <r>   19.4793    0.0000 </r>
       <r>   20.8541    0.0000 </r>
       <r>   22.9300    0.0000 </r>
       <r>   24.5498    0.0000 </r>
       <r>   26.6668    0.0000 </r>
      </set>
      <set comment="kpoint 25">
       <r>  -41.9003    1.0000 </r>
       <r>  -41.8991    1.0000 </r>
       <r>  -41.7660    1.0000 </r>
       <r>  -41.7326    1.0000 </r>
       <r>  -41.6990    1.0000 </r>
       <r>  -41.5518    1.0000 </r>
       <r>    4.6248    1.0000 </r>
       <r>    5.7824    1.0000 </r>
       <r>    6.0164    1.0000 </r>
       <r>    6.0897    1.0000 </r>
       <r>    7.2904    1.0000 </r>
       <r>    7.2965    1.0000 </r>
       <r>    8.1224    1.0000 </r>
       <r>    8.7135    1.0000 </r>
       <r>   10.2015    1.0000 </r>
       <r>   10.3749    1.0000 </r>
       <r>   11.1462    0.0000 </r>
       <r>   15.0414    0.0000 </r>
       <r>   18.4315    0.0000 </r>
       <r>   20.7957    0.0000 </r>
       <r>   21.4397    0.0000 </r>
       <r>   25.9904    0.0000 </r>
       <r>   26.3668    0.0000 </r>
       <r>   28.4110    0.0000 </r>
      </set>
      <set comment="kpoint 26">
       <r>  -41.9545    1.0000 </r>
       <r>  -41.9306    1.0000 </r>
       <r>  -41.8128    1.0000 </r>
       <r>  -41.7711    1.0000 </r>
       <r>  -41.6624    1.0000 </r>
       <r>  -41.5713    1.0000 </r>
       <r>    5.2268    1.0000 </r>
       <r>    5.6110    1.0000 </r>
       <r>    5.7741    1.0000 </r>
       <r>    6.5110    1.0000 </r>
       <r>    7.3074    1.0000 </r>
       <r>    7.6710    1.0000 </r>
       <r>    7.9444    1.0000 </r>
       <r>    9.3840    1.0000 </r>
       <r>   10.0820    1.0000 </r>
       <r>   10.7870    0.0026 </r>
       <r>   12.7401    0.0000 </r>
       <r>   16.7920    0.0000 </r>
       <r>   17.0962    0.0000 </r>
       <r>   19.4431    0.0000 </r>
       <r>   20.6868    0.0000 </r>
       <r>   23.6915    0.0000 </r>
       <r>   25.3409    0.0000 </r>
       <r>   26.2935    0.0000 </r>
      </set>
      <set comment="kpoint 27">
       <r>  -41.9752    1.0000 </r>
       <r>  -41.9391    1.0000 </r>
       <r>  -41.8350    1.0000 </r>
       <r>  -41.7861    1.0000 </r>
       <r>  -41.6415    1.0000 </r>
       <r>  -41.5858    1.0000 </r>
       <r>    5.1830    1.0000 </r>
       <r>    5.4961    1.0000 </r>
       <r>    5.8623    1.0000 </r>
       <r>    6.7239    1.0000 </r>
       <r>    7.1736    1.0000 </r>
       <r>    7.8561    1.0000 </r>
       <r>    8.2277    1.0000 </r>
       <r>   10.0270    1.0000 </r>
       <r>   10.0779    1.0000 </r>
       <r>   10.5770    0.9992 </r>
       <r>   14.3623    0.0000 </r>
       <r>   14.7960    0.0000 </r>
       <r>   18.1390    0.0000 </r>
       <r>   19.2868    0.0000 </r>
       <r>   20.2573    0.0000 </r>
       <r>   23.1559    0.0000 </r>
       <r>   24.7254    0.0000 </r>
       <r>   25.0409    0.0000 </r>
      </set>
      <set comment="kpoint 28">
       <r>  -41.9409    1.0000 </r>
       <r>  -41.9152    1.0000 </r>
       <r>  -41.8709    1.0000 </r>
       <r>  -41.8344    1.0000 </r>
       <r>  -41.6295    1.0000 </r>
       <r>  -41.5949    1.0000 </r>
       <r>    5.5660    1.0000 </r>
       <r>    5.8938    1.0000 </r>
       <r>    6.1980    1.0000 </r>
       <r>    6.4818    1.0000 </r>
       <r>    7.2496    1.0000 </r>
       <r>    7.2913    1.0000 </r>
       <r>    8.1628    1.0000 </r>
       <r>    9.7588    1.0000 </r>
       <r>    9.8672    1.0000 </r>
       <r>   10.4426    1.0000 </r>
       <r>   14.3701    0.0000 </r>
       <r>   15.6852    0.0000 </r>
       <r>   17.2147    0.0000 </r>
       <r>   19.5427    0.0000 </r>
       <r>   22.1371    0.0000 </r>
       <r>   22.2579    0.0000 </r>
       <r>   24.0750    0.0000 </r>
       <r>   25.3856    0.0000 </r>
      </set>
      <set comment="kpoint 29">
       <r>  -41.7703    1.0000 </r>
       <r>  -41.6646    1.0000 </r>
       <r>  -41.6646    1.0000 </r>
       <r>  -41.6386    1.0000 </r>
       <r>  -41.6386    1.0000 </r>
       <r>  -41.5573    1.0000 </r>
       <r>    1.7423    1.0000 </r>
       <r>    3.7437    1.0000 </r>
       <r>    6.8234    1.0000 </r>
       <r>    7.3563    1.0000 </r>
       <r>    7.3563    1.0000 </r>
       <r>    7.6246    1.0000 </r>
       <r>    7.6246    1.0000 </r>
       <r>    8.3487    1.0000 </r>
       <r>    9.3072    1.0000 </r>
       <r>    9.3072    1.0000 </r>
       <r>   10.3760    1.0000 </r>
       <r>   10.3760    1.0000 </r>
       <r>   18.0171    0.0000 </r>
       <r>   24.8237    0.0000 </r>
       <r>   27.0531    0.0000 </r>
       <r>   27.1168    0.0000 </r>
       <r>   30.5081    0.0000 </r>
       <r>   30.5081    0.0000 </r>
      </set>
      <set comment="kpoint 30">
       <r>  -41.7659    1.0000 </r>
       <r>  -41.6936    1.0000 </r>
       <r>  -41.6744    1.0000 </r>
       <r>  -41.6739    1.0000 </r>
       <r>  -41.6457    1.0000 </r>
       <r>  -41.5550    1.0000 </r>
       <r>    2.0862    1.0000 </r>
       <r>    4.0827    1.0000 </r>
       <r>    6.8513    1.0000 </r>
       <r>    7.1876    1.0000 </r>
       <r>    7.2638    1.0000 </r>
       <r>    7.5999    1.0000 </r>
       <r>    7.8672    1.0000 </r>
       <r>    7.9907    1.0000 </r>
       <r>    9.1934    1.0000 </r>
       <r>    9.1977    1.0000 </r>
       <r>   10.3972    1.0000 </r>
       <r>   10.9914    0.0000 </r>
       <r>   18.1743    0.0000 </r>
       <r>   25.2988    0.0000 </r>
       <r>   27.3842    0.0000 </r>
       <r>   27.4883    0.0000 </r>
       <r>   29.0555    0.0000 </r>
       <r>   29.8970    0.0000 </r>
      </set>
      <set comment="kpoint 31">
       <r>  -41.7993    1.0000 </r>
       <r>  -41.7641    1.0000 </r>
       <r>  -41.7204    1.0000 </r>
       <r>  -41.6974    1.0000 </r>
       <r>  -41.6647    1.0000 </r>
       <r>  -41.5547    1.0000 </r>
       <r>    2.9951    1.0000 </r>
       <r>    4.8634    1.0000 </r>
       <r>    6.5001    1.0000 </r>
       <r>    6.7757    1.0000 </r>
       <r>    6.9372    1.0000 </r>
       <r>    7.7188    1.0000 </r>
       <r>    8.1871    1.0000 </r>
       <r>    8.5288    1.0000 </r>
       <r>    9.0600    1.0000 </r>
       <r>    9.0875    1.0000 </r>
       <r>   10.4204    1.0000 </r>
       <r>   11.9794    0.0000 </r>
       <r>   18.6414    0.0000 </r>
       <r>   24.9126    0.0000 </r>
       <r>   26.6439    0.0000 </r>
       <r>   27.3644    0.0000 </r>
       <r>   28.1982    0.0000 </r>
       <r>   29.2854    0.0000 </r>
      </set>
      <set comment="kpoint 32">
       <r>  -41.8992    1.0000 </r>
       <r>  -41.8708    1.0000 </r>
       <r>  -41.7262    1.0000 </r>
       <r>  -41.6941    1.0000 </r>
       <r>  -41.6887    1.0000 </r>
       <r>  -41.5604    1.0000 </r>
       <r>    3.9592    1.0000 </r>
       <r>    5.0730    1.0000 </r>
       <r>    5.9652    1.0000 </r>
       <r>    6.4940    1.0000 </r>
       <r>    7.3820    1.0000 </r>
       <r>    8.1672    1.0000 </r>
       <r>    8.2998    1.0000 </r>
       <r>    9.3947    1.0000 </r>
       <r>    9.4505    1.0000 </r>
       <r>    9.6681    1.0000 </r>
       <r>   10.4574    1.0000 </r>
       <r>   12.8718    0.0000 </r>
       <r>   19.1096    0.0000 </r>
       <r>   21.8483    0.0000 </r>
       <r>   24.5990    0.0000 </r>
       <r>   26.1407    0.0000 </r>
       <r>   27.1200    0.0000 </r>
       <r>   28.4878    0.0000 </r>
      </set>
      <set comment="kpoint 33">
       <r>  -41.9834    1.0000 </r>
       <r>  -41.9547    1.0000 </r>
       <r>  -41.7490    1.0000 </r>
       <r>  -41.7083    1.0000 </r>
       <r>  -41.6625    1.0000 </r>
       <r>  -41.5710    1.0000 </r>
       <r>    4.2771    1.0000 </r>
       <r>    4.7564    1.0000 </r>
       <r>    5.8097    1.0000 </r>
       <r>    6.1951    1.0000 </r>
       <r>    8.0954    1.0000 </r>
       <r>    8.1235    1.0000 </r>
       <r>    9.3906    1.0000 </r>
       <r>   10.0493    1.0000 </r>
       <r>   10.5833    0.9985 </r>
       <r>   10.5926    0.9966 </r>
       <r>   10.8025    0.0006 </r>
       <r>   13.8599    0.0000 </r>
       <r>   17.5714    0.0000 </r>
       <r>   20.0150    0.0000 </r>
       <r>   22.5818    0.0000 </r>
       <r>   24.3987    0.0000 </r>
       <r>   25.4145    0.0000 </r>
       <r>   27.8859    0.0000 </r>
      </set>
      <set comment="kpoint 34">
       <r>  -42.0152    1.0000 </r>
       <r>  -41.9869    1.0000 </r>
       <r>  -41.7577    1.0000 </r>
       <r>  -41.7155    1.0000 </r>
       <r>  -41.6466    1.0000 </r>
       <r>  -41.5782    1.0000 </r>
       <r>    4.2740    1.0000 </r>
       <r>    4.6039    1.0000 </r>
       <r>    5.7355    1.0000 </r>
       <r>    6.1460    1.0000 </r>
       <r>    8.0484    1.0000 </r>
       <r>    8.2824    1.0000 </r>
       <r>   10.0874    1.0000 </r>
       <r>   10.1161    1.0000 </r>
       <r>   11.0138    0.0000 </r>
       <r>   11.1353    0.0000 </r>
       <r>   12.0626    0.0000 </r>
       <r>   13.9082    0.0000 </r>
       <r>   17.3678    0.0000 </r>
       <r>   17.5544    0.0000 </r>
       <r>   22.8120    0.0000 </r>
       <r>   23.6845    0.0000 </r>
       <r>   24.3536    0.0000 </r>
       <r>   27.6946    0.0000 </r>
      </set>
      <set comment="kpoint 35">
       <r>  -41.7768    1.0000 </r>
       <r>  -41.7382    1.0000 </r>
       <r>  -41.7200    1.0000 </r>
       <r>  -41.6891    1.0000 </r>
       <r>  -41.6630    1.0000 </r>
       <r>  -41.5542    1.0000 </r>
       <r>    2.7239    1.0000 </r>
       <r>    4.6886    1.0000 </r>
       <r>    6.6874    1.0000 </r>
       <r>    6.7267    1.0000 </r>
       <r>    7.0569    1.0000 </r>
       <r>    7.6193    1.0000 </r>
       <r>    8.0636    1.0000 </r>
       <r>    8.3418    1.0000 </r>
       <r>    9.0734    1.0000 </r>
       <r>    9.1444    1.0000 </r>
       <r>   10.3757    1.0000 </r>
       <r>   11.7461    0.0000 </r>
       <r>   18.4998    0.0000 </r>
       <r>   25.8078    0.0000 </r>
       <r>   26.8266    0.0000 </r>
       <r>   27.3978    0.0000 </r>
       <r>   27.6819    0.0000 </r>
       <r>   29.0761    0.0000 </r>
      </set>
      <set comment="kpoint 36">
       <r>  -41.8524    1.0000 </r>
       <r>  -41.8307    1.0000 </r>
       <r>  -41.7221    1.0000 </r>
       <r>  -41.7055    1.0000 </r>
       <r>  -41.6889    1.0000 </r>
       <r>  -41.5572    1.0000 </r>
       <r>    3.7524    1.0000 </r>
       <r>    5.4066    1.0000 </r>
       <r>    6.0410    1.0000 </r>
       <r>    6.5765    1.0000 </r>
       <r>    6.8975    1.0000 </r>
       <r>    7.5452    1.0000 </r>
       <r>    8.3296    1.0000 </r>
       <r>    8.8778    1.0000 </r>
       <r>    9.4817    1.0000 </r>
       <r>    9.5648    1.0000 </r>
       <r>   10.3922    1.0000 </r>
       <r>   12.6458    0.0000 </r>
       <r>   19.1067    0.0000 </r>
       <r>   23.3866    0.0000 </r>
       <r>   24.9864    0.0000 </r>
       <r>   26.4154    0.0000 </r>
       <r>   27.5740    0.0000 </r>
       <r>   28.1927    0.0000 </r>
      </set>
      <set comment="kpoint 37">
       <r>  -41.9414    1.0000 </r>
       <r>  -41.9172    1.0000 </r>
       <r>  -41.7558    1.0000 </r>
       <r>  -41.7192    1.0000 </r>
       <r>  -41.6714    1.0000 </r>
       <r>  -41.5657    1.0000 </r>
       <r>    4.4543    1.0000 </r>
       <r>    5.1989    1.0000 </r>
       <r>    5.8214    1.0000 </r>
       <r>    6.3836    1.0000 </r>
       <r>    7.5098    1.0000 </r>
       <r>    8.1066    1.0000 </r>
       <r>    8.2577    1.0000 </r>
       <r>    9.4012    1.0000 </r>
       <r>    9.9381    1.0000 </r>
       <r>   10.5371    1.0000 </r>
       <r>   11.0872    0.0000 </r>
       <r>   13.6989    0.0000 </r>
       <r>   18.7329    0.0000 </r>
       <r>   21.0560    0.0000 </r>
       <r>   22.6478    0.0000 </r>
       <r>   24.4772    0.0000 </r>
       <r>   26.3610    0.0000 </r>
       <r>   27.5242    0.0000 </r>
      </set>
      <set comment="kpoint 38">
       <r>  -41.9973    1.0000 </r>
       <r>  -41.9695    1.0000 </r>
       <r>  -41.7766    1.0000 </r>
       <r>  -41.7356    1.0000 </r>
       <r>  -41.6455    1.0000 </r>
       <r>  -41.5773    1.0000 </r>
       <r>    4.5038    1.0000 </r>
       <r>    4.9185    1.0000 </r>
       <r>    5.9043    1.0000 </r>
       <r>    6.1710    1.0000 </r>
       <r>    7.5512    1.0000 </r>
       <r>    8.5215    1.0000 </r>
       <r>    9.1469    1.0000 </r>
       <r>    9.9072    1.0000 </r>
       <r>   10.4088    1.0000 </r>
       <r>   10.9501    0.0000 </r>
       <r>   12.5205    0.0000 </r>
       <r>   14.7102    0.0000 </r>
       <r>   16.8851    0.0000 </r>
       <r>   18.9579    0.0000 </r>
       <r>   21.9508    0.0000 </r>
       <r>   23.6706    0.0000 </r>
       <r>   25.0297    0.0000 </r>
       <r>   26.4773    0.0000 </r>
      </set>
      <set comment="kpoint 39">
       <r>  -41.9058    1.0000 </r>
       <r>  -41.9018    1.0000 </r>
       <r>  -41.7647    1.0000 </r>
       <r>  -41.7388    1.0000 </r>
       <r>  -41.6736    1.0000 </r>
       <r>  -41.5637    1.0000 </r>
       <r>    4.7323    1.0000 </r>
       <r>    5.6077    1.0000 </r>
       <r>    6.0898    1.0000 </r>
       <r>    6.2433    1.0000 </r>
       <r>    7.2085    1.0000 </r>
       <r>    7.2522    1.0000 </r>
       <r>    7.9941    1.0000 </r>
       <r>    9.1366    1.0000 </r>
       <r>    9.7860    1.0000 </r>
       <r>   10.5894    0.9974 </r>
       <r>   11.2259    0.0000 </r>
       <r>   13.7393    0.0000 </r>
       <r>   19.4438    0.0000 </r>
       <r>   21.8403    0.0000 </r>
       <r>   21.8823    0.0000 </r>
       <r>   25.2552    0.0000 </r>
       <r>   25.5594    0.0000 </r>
       <r>   28.0915    0.0000 </r>
      </set>
      <set comment="kpoint 40">
       <r>  -41.9555    1.0000 </r>
       <r>  -41.9379    1.0000 </r>
       <r>  -41.8115    1.0000 </r>
       <r>  -41.7786    1.0000 </r>
       <r>  -41.6440    1.0000 </r>
       <r>  -41.5758    1.0000 </r>
       <r>    5.1017    1.0000 </r>
       <r>    5.7389    1.0000 </r>
       <r>    5.7642    1.0000 </r>
       <r>    6.5182    1.0000 </r>
       <r>    7.1674    1.0000 </r>
       <r>    7.7336    1.0000 </r>
       <r>    8.1461    1.0000 </r>
       <r>    9.4997    1.0000 </r>
       <r>    9.7460    1.0000 </r>
       <r>   10.9685    0.0000 </r>
       <r>   12.8494    0.0000 </r>
       <r>   15.5776    0.0000 </r>
       <r>   17.4475    0.0000 </r>
       <r>   19.8328    0.0000 </r>
       <r>   21.4255    0.0000 </r>
       <r>   23.3774    0.0000 </r>
       <r>   24.7401    0.0000 </r>
       <r>   26.8621    0.0000 </r>
      </set>
      <set comment="kpoint 41">
       <r>  -41.9749    1.0000 </r>
       <r>  -41.9478    1.0000 </r>
       <r>  -41.8325    1.0000 </r>
       <r>  -41.7942    1.0000 </r>
       <r>  -41.6274    1.0000 </r>
       <r>  -41.5857    1.0000 </r>
       <r>    5.0375    1.0000 </r>
       <r>    5.6071    1.0000 </r>
       <r>    6.1684    1.0000 </r>
       <r>    6.3317    1.0000 </r>
       <r>    6.9251    1.0000 </r>
       <r>    8.1617    1.0000 </r>
       <r>    8.5374    1.0000 </r>
       <r>    9.5534    1.0000 </r>
       <r>   10.1699    1.0000 </r>
       <r>   10.7201    0.1837 </r>
       <r>   14.6043    0.0000 </r>
       <r>   14.9041    0.0000 </r>
       <r>   17.8329    0.0000 </r>
       <r>   18.5268    0.0000 </r>
       <r>   20.0573    0.0000 </r>
       <r>   23.9785    0.0000 </r>
       <r>   24.6268    0.0000 </r>
       <r>   25.4375    0.0000 </r>
      </set>
      <set comment="kpoint 42">
       <r>  -41.9384    1.0000 </r>
       <r>  -41.9222    1.0000 </r>
       <r>  -41.8733    1.0000 </r>
       <r>  -41.8421    1.0000 </r>
       <r>  -41.6177    1.0000 </r>
       <r>  -41.5914    1.0000 </r>
       <r>    5.6238    1.0000 </r>
       <r>    5.8191    1.0000 </r>
       <r>    6.3146    1.0000 </r>
       <r>    6.3838    1.0000 </r>
       <r>    7.1054    1.0000 </r>
       <r>    7.3842    1.0000 </r>
       <r>    8.1842    1.0000 </r>
       <r>    9.3683    1.0000 </r>
       <r>   10.0168    1.0000 </r>
       <r>   10.6129    0.9835 </r>
       <r>   14.6523    0.0000 </r>
       <r>   16.1220    0.0000 </r>
       <r>   17.8317    0.0000 </r>
       <r>   18.2144    0.0000 </r>
       <r>   20.7716    0.0000 </r>
       <r>   21.7639    0.0000 </r>
       <r>   25.1203    0.0000 </r>
       <r>   26.7023    0.0000 </r>
      </set>
      <set comment="kpoint 43">
       <r>  -41.7220    1.0000 </r>
       <r>  -41.6586    1.0000 </r>
       <r>  -41.6586    1.0000 </r>
       <r>  -41.6444    1.0000 </r>
       <r>  -41.6444    1.0000 </r>
       <r>  -41.6058    1.0000 </r>
       <r>    2.3094    1.0000 </r>
       <r>    3.4639    1.0000 </r>
       <r>    6.7849    1.0000 </r>
       <r>    7.3580    1.0000 </r>
       <r>    7.3580    1.0000 </r>
       <r>    7.4137    1.0000 </r>
       <r>    7.5086    1.0000 </r>
       <r>    7.5086    1.0000 </r>
       <r>    9.6242    1.0000 </r>
       <r>    9.6242    1.0000 </r>
       <r>   10.2005    1.0000 </r>
       <r>   10.2005    1.0000 </r>
       <r>   20.2658    0.0000 </r>
       <r>   24.0856    0.0000 </r>
       <r>   26.4832    0.0000 </r>
       <r>   26.5490    0.0000 </r>
       <r>   30.4653    0.0000 </r>
       <r>   30.4653    0.0000 </r>
      </set>
      <set comment="kpoint 44">
       <r>  -41.7287    1.0000 </r>
       <r>  -41.6843    1.0000 </r>
       <r>  -41.6778    1.0000 </r>
       <r>  -41.6675    1.0000 </r>
       <r>  -41.6522    1.0000 </r>
       <r>  -41.5981    1.0000 </r>
       <r>    2.6476    1.0000 </r>
       <r>    3.8099    1.0000 </r>
       <r>    6.7638    1.0000 </r>
       <r>    6.9182    1.0000 </r>
       <r>    7.1773    1.0000 </r>
       <r>    7.5734    1.0000 </r>
       <r>    7.5949    1.0000 </r>
       <r>    7.7472    1.0000 </r>
       <r>    9.5416    1.0000 </r>
       <r>    9.5968    1.0000 </r>
       <r>   10.1864    1.0000 </r>
       <r>   10.4753    1.0000 </r>
       <r>   20.4287    0.0000 </r>
       <r>   24.4407    0.0000 </r>
       <r>   26.8722    0.0000 </r>
       <r>   26.8942    0.0000 </r>
       <r>   29.1072    0.0000 </r>
       <r>   30.1239    0.0000 </r>
      </set>
      <set comment="kpoint 45">
       <r>  -41.7951    1.0000 </r>
       <r>  -41.7748    1.0000 </r>
       <r>  -41.6898    1.0000 </r>
       <r>  -41.6789    1.0000 </r>
       <r>  -41.6721    1.0000 </r>
       <r>  -41.5906    1.0000 </r>
       <r>    3.5016    1.0000 </r>
       <r>    4.6190    1.0000 </r>
       <r>    6.2911    1.0000 </r>
       <r>    6.6327    1.0000 </r>
       <r>    6.9479    1.0000 </r>
       <r>    7.4611    1.0000 </r>
       <r>    8.1939    1.0000 </r>
       <r>    8.3971    1.0000 </r>
       <r>    9.4287    1.0000 </r>
       <r>    9.6290    1.0000 </r>
       <r>   10.1502    1.0000 </r>
       <r>   11.0356    0.0000 </r>
       <r>   20.7985    0.0000 </r>
       <r>   24.9449    0.0000 </r>
       <r>   25.6225    0.0000 </r>
       <r>   26.7105    0.0000 </r>
       <r>   28.5552    0.0000 </r>
       <r>   28.9761    0.0000 </r>
      </set>
      <set comment="kpoint 46">
       <r>  -41.8979    1.0000 </r>
       <r>  -41.8817    1.0000 </r>
       <r>  -41.7175    1.0000 </r>
       <r>  -41.6972    1.0000 </r>
       <r>  -41.6578    1.0000 </r>
       <r>  -41.5865    1.0000 </r>
       <r>    4.2283    1.0000 </r>
       <r>    4.9202    1.0000 </r>
       <r>    5.9190    1.0000 </r>
       <r>    6.2903    1.0000 </r>
       <r>    7.6078    1.0000 </r>
       <r>    8.0826    1.0000 </r>
       <r>    8.5623    1.0000 </r>
       <r>    9.1962    1.0000 </r>
       <r>    9.8092    1.0000 </r>
       <r>    9.8759    1.0000 </r>
       <r>   10.2315    1.0000 </r>
       <r>   11.6418    0.0000 </r>
       <r>   20.5175    0.0000 </r>
       <r>   22.7684    0.0000 </r>
       <r>   23.6793    0.0000 </r>
       <r>   26.2057    0.0000 </r>
       <r>   27.1732    0.0000 </r>
       <r>   28.5685    0.0000 </r>
      </set>
      <set comment="kpoint 47">
       <r>  -41.9818    1.0000 </r>
       <r>  -41.9659    1.0000 </r>
       <r>  -41.7396    1.0000 </r>
       <r>  -41.7174    1.0000 </r>
       <r>  -41.6361    1.0000 </r>
       <r>  -41.5868    1.0000 </r>
       <r>    4.3184    1.0000 </r>
       <r>    4.6903    1.0000 </r>
       <r>    5.7776    1.0000 </r>
       <r>    5.9447    1.0000 </r>
       <r>    8.5029    1.0000 </r>
       <r>    8.6505    1.0000 </r>
       <r>    9.5289    1.0000 </r>
       <r>    9.9105    1.0000 </r>
       <r>   10.4967    1.0000 </r>
       <r>   10.6383    0.9213 </r>
       <r>   10.7621    0.0185 </r>
       <r>   12.5015    0.0000 </r>
       <r>   18.1382    0.0000 </r>
       <r>   19.6345    0.0000 </r>
       <r>   23.5455    0.0000 </r>
       <r>   25.4872    0.0000 </r>
       <r>   25.5066    0.0000 </r>
       <r>   28.1374    0.0000 </r>
      </set>
      <set comment="kpoint 48">
       <r>  -42.0139    1.0000 </r>
       <r>  -41.9983    1.0000 </r>
       <r>  -41.7480    1.0000 </r>
       <r>  -41.7253    1.0000 </r>
       <r>  -41.6258    1.0000 </r>
       <r>  -41.5890    1.0000 </r>
       <r>    4.2653    1.0000 </r>
       <r>    4.5712    1.0000 </r>
       <r>    5.7541    1.0000 </r>
       <r>    5.7908    1.0000 </r>
       <r>    8.4528    1.0000 </r>
       <r>    8.9585    1.0000 </r>
       <r>    9.5561    1.0000 </r>
       <r>   10.7978    0.0010 </r>
       <r>   11.0444    0.0000 </r>
       <r>   11.1088    0.0000 </r>
       <r>   11.5248    0.0000 </r>
       <r>   13.2876    0.0000 </r>
       <r>   17.0757    0.0000 </r>
       <r>   17.1017    0.0000 </r>
       <r>   24.0950    0.0000 </r>
       <r>   24.7106    0.0000 </r>
       <r>   24.8109    0.0000 </r>
       <r>   27.3813    0.0000 </r>
      </set>
      <set comment="kpoint 49">
       <r>  -41.7680    1.0000 </r>
       <r>  -41.7464    1.0000 </r>
       <r>  -41.6843    1.0000 </r>
       <r>  -41.6829    1.0000 </r>
       <r>  -41.6683    1.0000 </r>
       <r>  -41.5919    1.0000 </r>
       <r>    3.2603    1.0000 </r>
       <r>    4.4267    1.0000 </r>
       <r>    6.4339    1.0000 </r>
       <r>    6.7155    1.0000 </r>
       <r>    6.8892    1.0000 </r>
       <r>    7.3898    1.0000 </r>
       <r>    8.0574    1.0000 </r>
       <r>    8.2284    1.0000 </r>
       <r>    9.4580    1.0000 </r>
       <r>    9.6121    1.0000 </r>
       <r>   10.1304    1.0000 </r>
       <r>   10.9044    0.0000 </r>
       <r>   20.7179    0.0000 </r>
       <r>   24.9329    0.0000 </r>
       <r>   26.9586    0.0000 </r>
       <r>   27.1658    0.0000 </r>
       <r>   27.2808    0.0000 </r>
       <r>   28.1584    0.0000 </r>
      </set>
      <set comment="kpoint 50">
       <r>  -41.8521    1.0000 </r>
       <r>  -41.8390    1.0000 </r>
       <r>  -41.7160    1.0000 </r>
       <r>  -41.7003    1.0000 </r>
       <r>  -41.6632    1.0000 </r>
       <r>  -41.5867    1.0000 </r>
       <r>    4.1580    1.0000 </r>
       <r>    5.1516    1.0000 </r>
       <r>    6.0127    1.0000 </r>
       <r>    6.5283    1.0000 </r>
       <r>    6.8387    1.0000 </r>
       <r>    7.3177    1.0000 </r>
       <r>    8.4685    1.0000 </r>
       <r>    8.9700    1.0000 </r>
       <r>    9.7458    1.0000 </r>
       <r>    9.8134    1.0000 </r>
       <r>   10.2019    1.0000 </r>
       <r>   11.5024    0.0000 </r>
       <r>   21.0196    0.0000 </r>
       <r>   24.1668    0.0000 </r>
       <r>   24.5246    0.0000 </r>
       <r>   26.3375    0.0000 </r>
       <r>   26.3950    0.0000 </r>
       <r>   27.2974    0.0000 </r>
      </set>
      <set comment="kpoint 51">
       <r>  -41.9408    1.0000 </r>
       <r>  -41.9272    1.0000 </r>
       <r>  -41.7483    1.0000 </r>
       <r>  -41.7284    1.0000 </r>
       <r>  -41.6413    1.0000 </r>
       <r>  -41.5850    1.0000 </r>
       <r>    4.5656    1.0000 </r>
       <r>    5.0669    1.0000 </r>
       <r>    5.8406    1.0000 </r>
       <r>    6.2424    1.0000 </r>
       <r>    7.7211    1.0000 </r>
       <r>    8.1262    1.0000 </r>
       <r>    8.5367    1.0000 </r>
       <r>    9.2847    1.0000 </r>
       <r>   10.0090    1.0000 </r>
       <r>   10.7193    0.1900 </r>
       <r>   11.0734    0.0000 </r>
       <r>   12.3850    0.0000 </r>
       <r>   19.5298    0.0000 </r>
       <r>   21.3854    0.0000 </r>
       <r>   23.1888    0.0000 </r>
       <r>   24.9803    0.0000 </r>
       <r>   26.2148    0.0000 </r>
       <r>   26.3696    0.0000 </r>
      </set>
      <set comment="kpoint 52">
       <r>  -41.9958    1.0000 </r>
       <r>  -41.9806    1.0000 </r>
       <r>  -41.7681    1.0000 </r>
       <r>  -41.7456    1.0000 </r>
       <r>  -41.6240    1.0000 </r>
       <r>  -41.5873    1.0000 </r>
       <r>    4.5064    1.0000 </r>
       <r>    4.8710    1.0000 </r>
       <r>    5.8125    1.0000 </r>
       <r>    6.0049    1.0000 </r>
       <r>    7.8841    1.0000 </r>
       <r>    8.9992    1.0000 </r>
       <r>    9.1624    1.0000 </r>
       <r>    9.6878    1.0000 </r>
       <r>   10.4334    1.0000 </r>
       <r>   10.9449    0.0000 </r>
       <r>   12.5771    0.0000 </r>
       <r>   13.8037    0.0000 </r>
       <r>   17.1108    0.0000 </r>
       <r>   18.2658    0.0000 </r>
       <r>   23.2031    0.0000 </r>
       <r>   24.5550    0.0000 </r>
       <r>   25.3806    0.0000 </r>
       <r>   25.6838    0.0000 </r>
      </set>
      <set comment="kpoint 53">
       <r>  -41.9095    1.0000 </r>
       <r>  -41.9058    1.0000 </r>
       <r>  -41.7612    1.0000 </r>
       <r>  -41.7468    1.0000 </r>
       <r>  -41.6421    1.0000 </r>
       <r>  -41.5835    1.0000 </r>
       <r>    4.9094    1.0000 </r>
       <r>    5.3879    1.0000 </r>
       <r>    6.2326    1.0000 </r>
       <r>    6.3755    1.0000 </r>
       <r>    7.0559    1.0000 </r>
       <r>    7.0564    1.0000 </r>
       <r>    8.1777    1.0000 </r>
       <r>    9.1081    1.0000 </r>
       <r>   10.0006    1.0000 </r>
       <r>   10.7640    0.0161 </r>
       <r>   11.2658    0.0000 </r>
       <r>   12.4567    0.0000 </r>
       <r>   20.5862    0.0000 </r>
       <r>   22.1895    0.0000 </r>
       <r>   23.1369    0.0000 </r>
       <r>   24.2154    0.0000 </r>
       <r>   25.1433    0.0000 </r>
       <r>   26.7277    0.0000 </r>
      </set>
      <set comment="kpoint 54">
       <r>  -41.9555    1.0000 </r>
       <r>  -41.9459    1.0000 </r>
       <r>  -41.8067    1.0000 </r>
       <r>  -41.7884    1.0000 </r>
       <r>  -41.6215    1.0000 </r>
       <r>  -41.5853    1.0000 </r>
       <r>    5.0992    1.0000 </r>
       <r>    5.4695    1.0000 </r>
       <r>    5.9929    1.0000 </r>
       <r>    6.5577    1.0000 </r>
       <r>    7.1882    1.0000 </r>
       <r>    7.7277    1.0000 </r>
       <r>    8.3176    1.0000 </r>
       <r>    8.9899    1.0000 </r>
       <r>   10.2065    1.0000 </r>
       <r>   11.0168    0.0000 </r>
       <r>   13.0559    0.0000 </r>
       <r>   14.3695    0.0000 </r>
       <r>   18.1740    0.0000 </r>
       <r>   19.8116    0.0000 </r>
       <r>   21.6881    0.0000 </r>
       <r>   23.2190    0.0000 </r>
       <r>   24.9061    0.0000 </r>
       <r>   26.7533    0.0000 </r>
      </set>
      <set comment="kpoint 55">
       <r>  -41.9729    1.0000 </r>
       <r>  -41.9583    1.0000 </r>
       <r>  -41.8265    1.0000 </r>
       <r>  -41.8052    1.0000 </r>
       <r>  -41.6108    1.0000 </r>
       <r>  -41.5887    1.0000 </r>
       <r>    5.0486    1.0000 </r>
       <r>    5.5242    1.0000 </r>
       <r>    5.9832    1.0000 </r>
       <r>    6.4882    1.0000 </r>
       <r>    7.0351    1.0000 </r>
       <r>    8.1023    1.0000 </r>
       <r>    8.8030    1.0000 </r>
       <r>    9.1257    1.0000 </r>
       <r>   10.3640    1.0000 </r>
       <r>   10.7637    0.0164 </r>
       <r>   14.9680    0.0000 </r>
       <r>   15.0757    0.0000 </r>
       <r>   17.2080    0.0000 </r>
       <r>   17.6681    0.0000 </r>
       <r>   20.7981    0.0000 </r>
       <r>   22.9301    0.0000 </r>
       <r>   25.8131    0.0000 </r>
       <r>   26.0839    0.0000 </r>
      </set>
      <set comment="kpoint 56">
       <r>  -41.9363    1.0000 </r>
       <r>  -41.9293    1.0000 </r>
       <r>  -41.8714    1.0000 </r>
       <r>  -41.8531    1.0000 </r>
       <r>  -41.6043    1.0000 </r>
       <r>  -41.5907    1.0000 </r>
       <r>    5.6513    1.0000 </r>
       <r>    5.7216    1.0000 </r>
       <r>    6.4011    1.0000 </r>
       <r>    6.4606    1.0000 </r>
       <r>    7.0300    1.0000 </r>
       <r>    7.3722    1.0000 </r>
       <r>    8.2469    1.0000 </r>
[...]
       </set>
       <set comment="band 12">
        <r>  0.0175  0.0119  0.0000  0.0046  0.1080  0.0000  0.4202  0.0000  0.0867 </r>
        <r>  0.0000  0.0000  0.0000  0.0000  0.0000  0.0478  0.0000  0.0425  0.0000 </r>
       </set>
       <set comment="band 13">
        <r>  0.0000  0.0000  0.0002  0.0000  0.0000  0.2093  0.0000  0.5128  0.0000 </r>
        <r>  0.0037  0.0010  0.0000  0.0004  0.0658  0.0000  0.0013  0.0000  0.0481 </r>
       </set>
       <set comment="band 14">
        <r>  0.0037  0.0010  0.0000  0.0004  0.0658  0.0000  0.0013  0.0000  0.0481 </r>
        <r>  0.0000  0.0000  0.0002  0.0000  0.0000  0.2093  0.0000  0.5128  0.0000 </r>
       </set>
       <set comment="band 15">
        <r>  0.0000  0.0000  0.0020  0.0000  0.0000  0.1916  0.0000  0.1428  0.0000 </r>
        <r>  0.0052  0.0001  0.0000  0.0000  0.1747  0.0000  0.3502  0.0000  0.0622 </r>
       </set>
       <set comment="band 16">
        <r>  0.0052  0.0001  0.0000  0.0000  0.1747  0.0000  0.3502  0.0000  0.0622 </r>
        <r>  0.0000  0.0000  0.0020  0.0000  0.0000  0.1916  0.0000  0.1428  0.0000 </r>
       </set>
       <set comment="band 17">
        <r>  0.0885  0.0215  0.0000  0.0073  0.3086  0.0000  0.0078  0.0000  0.1106 </r>
        <r>  0.0000  0.0000  0.0109  0.0000  0.0000  0.1312  0.0000  0.0467  0.0000 </r>
       </set>
       <set comment="band 18">
        <r>  0.0000  0.0000  0.0109  0.0000  0.0000  0.1312  0.0000  0.0467  0.0000 </r>
        <r>  0.0885  0.0215  0.0000  0.0073  0.3086  0.0000  0.0078  0.0000  0.1106 </r>
       </set>
       <set comment="band 19">
        <r>  0.0000  0.0000  0.0333  0.0000  0.0000  0.0199  0.0000  0.0445  0.0000 </r>
        <r>  0.2638  0.0536  0.0000  0.0189  0.0095  0.0000  0.0095  0.0000  0.0043 </r>
       </set>
       <set comment="band 20">
        <r>  0.2638  0.0536  0.0000  0.0189  0.0095  0.0000  0.0095  0.0000  0.0043 </r>
        <r>  0.0000  0.0000  0.0333  0.0000  0.0000  0.0199  0.0000  0.0445  0.0000 </r>
       </set>
       <set comment="band 21">
        <r>  0.0000  0.0000  0.0783  0.0000  0.0000  0.0085  0.0000  0.0173  0.0000 </r>
        <r>  0.0007  0.0437  0.0000  0.0663  0.0331  0.0000  0.0456  0.0000  0.0991 </r>
       </set>
       <set comment="band 22">
        <r>  0.0007  0.0437  0.0000  0.0663  0.0331  0.0000  0.0456  0.0000  0.0991 </r>
        <r>  0.0000  0.0000  0.0783  0.0000  0.0000  0.0085  0.0000  0.0173  0.0000 </r>
       </set>
       <set comment="band 23">
        <r>  0.0006  0.0436  0.0000  0.0354  0.0164  0.0000  0.0556  0.0000  0.0490 </r>
        <r>  0.0000  0.0000  0.0383  0.0000  0.0000  0.0692  0.0000  0.0275  0.0000 </r>
       </set>
       <set comment="band 24">
        <r>  0.0000  0.0000  0.0383  0.0000  0.0000  0.0692  0.0000  0.0275  0.0000 </r>
        <r>  0.0006  0.0436  0.0000  0.0354  0.0164  0.0000  0.0556  0.0000  0.0490 </r>
       </set>
      </set>
      <set comment="kpoint 68">
       <set comment="band 1">
        <r>  0.0000  0.4877  0.0000  0.4583  0.0000  0.0000  0.0000  0.0000  0.0000 </r>
        <r>  0.0000  0.0000  0.0396  0.0000  0.0000  0.0000  0.0000  0.0000  0.0000 </r>
       </set>
       <set comment="band 2">
        <r>  0.0000  0.0000  0.0396  0.0000  0.0000  0.0000  0.0000  0.0000  0.0000 </r>
        <r>  0.0000  0.4877  0.0000  0.4583  0.0000  0.0000  0.0000  0.0000  0.0000 </r>
       </set>
       <set comment="band 3">
        <r>  0.0000  0.4676  0.0000  0.4983  0.0000  0.0000  0.0000  0.0000  0.0000 </r>
        <r>  0.0000  0.0000  0.0250  0.0000  0.0000  0.0000  0.0000  0.0000  0.0000 </r>
       </set>
       <set comment="band 4">
        <r>  0.0000  0.0000  0.0250  0.0000  0.0000  0.0000  0.0000  0.0000  0.0000 </r>
        <r>  0.0000  0.4676  0.0000  0.4983  0.0000  0.0000  0.0000  0.0000  0.0000 </r>
       </set>
       <set comment="band 5">
        <r>  0.0000  0.0000  0.9265  0.0000  0.0000  0.0000  0.0000  0.0000  0.0000 </r>
        <r>  0.0000  0.0334  0.0000  0.0324  0.0000  0.0000  0.0000  0.0000  0.0000 </r>
       </set>
       <set comment="band 6">
        <r>  0.0000  0.0334  0.0000  0.0324  0.0000  0.0000  0.0000  0.0000  0.0000 </r>
        <r>  0.0000  0.0000  0.9265  0.0000  0.0000  0.0000  0.0000  0.0000  0.0000 </r>
       </set>
       <set comment="band 7">
        <r>  0.0000  0.0000  0.0024  0.0000  0.0000  0.1937  0.0000  0.1785  0.0000 </r>
        <r>  0.0643  0.0056  0.0000  0.0017  0.0959  0.0000  0.0564  0.0000  0.0374 </r>
       </set>
       <set comment="band 8">
        <r>  0.0643  0.0056  0.0000  0.0017  0.0959  0.0000  0.0564  0.0000  0.0374 </r>
        <r>  0.0000  0.0000  0.0024  0.0000  0.0000  0.1937  0.0000  0.1785  0.0000 </r>
       </set>
       <set comment="band 9">
        <r>  0.0000  0.0000  0.0026  0.0000  0.0000  0.0708  0.0000  0.0310  0.0000 </r>
        <r>  0.0077  0.0067  0.0000  0.0045  0.2677  0.0000  0.1271  0.0000  0.2134 </r>
       </set>
       <set comment="band 10">
        <r>  0.0077  0.0067  0.0000  0.0045  0.2677  0.0000  0.1271  0.0000  0.2134 </r>
        <r>  0.0000  0.0000  0.0026  0.0000  0.0000  0.0708  0.0000  0.0310  0.0000 </r>
       </set>
       <set comment="band 11">
        <r>  0.0000  0.0000  0.0039  0.0000  0.0000  0.0958  0.0000  0.1567  0.0000 </r>
        <r>  0.0157  0.0104  0.0000  0.0188  0.0584  0.0000  0.1450  0.0000  0.1736 </r>
       </set>
       <set comment="band 12">
        <r>  0.0157  0.0104  0.0000  0.0188  0.0584  0.0000  0.1450  0.0000  0.1736 </r>
        <r>  0.0000  0.0000  0.0039  0.0000  0.0000  0.0958  0.0000  0.1567  0.0000 </r>
       </set>
       <set comment="band 13">
        <r>  0.0000  0.0000  0.0003  0.0000  0.0000  0.2169  0.0000  0.2668  0.0000 </r>
        <r>  0.0134  0.0015  0.0000  0.0039  0.0743  0.0000  0.0367  0.0000  0.2125 </r>
       </set>
       <set comment="band 14">
        <r>  0.0134  0.0015  0.0000  0.0039  0.0743  0.0000  0.0367  0.0000  0.2125 </r>
        <r>  0.0000  0.0000  0.0003  0.0000  0.0000  0.2169  0.0000  0.2668  0.0000 </r>
       </set>
       <set comment="band 15">
        <r>  0.0000  0.0000  0.0019  0.0000  0.0000  0.1758  0.0000  0.1290  0.0000 </r>
        <r>  0.0036  0.0014  0.0000  0.0005  0.0924  0.0000  0.4815  0.0000  0.0383 </r>
       </set>
       <set comment="band 16">
        <r>  0.0036  0.0014  0.0000  0.0005  0.0924  0.0000  0.4815  0.0000  0.0383 </r>
        <r>  0.0000  0.0000  0.0019  0.0000  0.0000  0.1758  0.0000  0.1290  0.0000 </r>
       </set>
       <set comment="band 17">
        <r>  0.1036  0.0304  0.0000  0.0215  0.2672  0.0000  0.0057  0.0000  0.1218 </r>
        <r>  0.0000  0.0000  0.0177  0.0000  0.0000  0.0644  0.0000  0.0219  0.0000 </r>
       </set>
       <set comment="band 18">
        <r>  0.0000  0.0000  0.0177  0.0000  0.0000  0.0644  0.0000  0.0219  0.0000 </r>
        <r>  0.1036  0.0304  0.0000  0.0215  0.2672  0.0000  0.0057  0.0000  0.1218 </r>
       </set>
       <set comment="band 19">
        <r>  0.0000  0.0000  0.0141  0.0000  0.0000  0.0131  0.0000  0.0827  0.0000 </r>
        <r>  0.2959  0.0247  0.0000  0.0411  0.0160  0.0000  0.0244  0.0000  0.0315 </r>
       </set>
       <set comment="band 20">
        <r>  0.2959  0.0247  0.0000  0.0411  0.0160  0.0000  0.0244  0.0000  0.0315 </r>
        <r>  0.0000  0.0000  0.0141  0.0000  0.0000  0.0131  0.0000  0.0827  0.0000 </r>
       </set>
       <set comment="band 21">
        <r>  0.0000  0.0000  0.0422  0.0000  0.0000  0.0426  0.0000  0.0148  0.0000 </r>
        <r>  0.0241  0.0752  0.0000  0.0521  0.0509  0.0000  0.0065  0.0000  0.1049 </r>
       </set>
       <set comment="band 22">
        <r>  0.0241  0.0752  0.0000  0.0521  0.0509  0.0000  0.0065  0.0000  0.1049 </r>
        <r>  0.0000  0.0000  0.0422  0.0000  0.0000  0.0426  0.0000  0.0148  0.0000 </r>
       </set>
       <set comment="band 23">
        <r>  0.0000  0.0001  0.0885  0.0000  0.0000  0.0423  0.0000  0.0237  0.0000 </r>
        <r>  0.0062  0.0330  0.0001  0.0260  0.0111  0.0001  0.0239  0.0000  0.0164 </r>
       </set>
       <set comment="band 24">
        <r>  0.0062  0.0330  0.0001  0.0260  0.0111  0.0001  0.0239  0.0000  0.0164 </r>
        <r>  0.0000  0.0001  0.0885  0.0000  0.0000  0.0423  0.0000  0.0237  0.0000 </r>
       </set>
      </set>
      <set comment="kpoint 69">
       <set comment="band 1">
        <r>  0.0000  0.2382  0.0000  0.7099  0.0000  0.0000  0.0000  0.0000  0.0000 </r>
        <r>  0.0000  0.0000  0.0370  0.0000  0.0000  0.0000  0.0000  0.0000  0.0000 </r>
       </set>
       <set comment="band 2">
        <r>  0.0000  0.0000  0.0370  0.0000  0.0000  0.0000  0.0000  0.0000  0.0000 </r>
        <r>  0.0000  0.2382  0.0000  0.7099  0.0000  0.0000  0.0000  0.0000  0.0000 </r>
       </set>
       <set comment="band 3">
        <r>  0.0000  0.7211  0.0000  0.2446  0.0000  0.0000  0.0000  0.0000  0.0000 </r>
        <r>  0.0000  0.0000  0.0246  0.0000  0.0000  0.0000  0.0000  0.0000  0.0000 </r>
       </set>
       <set comment="band 4">
        <r>  0.0000  0.0000  0.0246  0.0000  0.0000  0.0000  0.0000  0.0000  0.0000 </r>
        <r>  0.0000  0.7211  0.0000  0.2446  0.0000  0.0000  0.0000  0.0000  0.0000 </r>
       </set>
       <set comment="band 5">
        <r>  0.0000  0.0000  0.9297  0.0000  0.0000  0.0000  0.0000  0.0000  0.0000 </r>
        <r>  0.0000  0.0302  0.0000  0.0326  0.0000  0.0000  0.0000  0.0000  0.0000 </r>
       </set>
       <set comment="band 6">
        <r>  0.0000  0.0302  0.0000  0.0326  0.0000  0.0000  0.0000  0.0000  0.0000 </r>
        <r>  0.0000  0.0000  0.9297  0.0000  0.0000  0.0000  0.0000  0.0000  0.0000 </r>
       </set>
       <set comment="band 7">
        <r>  0.0000  0.0000  0.0008  0.0000  0.0000  0.0915  0.0000  0.2652  0.0000 </r>
        <r>  0.0557  0.0047  0.0000  0.0024  0.1360  0.0000  0.0488  0.0000  0.0466 </r>
       </set>
       <set comment="band 8">
        <r>  0.0557  0.0047  0.0000  0.0024  0.1360  0.0000  0.0488  0.0000  0.0466 </r>
        <r>  0.0000  0.0000  0.0008  0.0000  0.0000  0.0915  0.0000  0.2652  0.0000 </r>
       </set>
       <set comment="band 9">
        <r>  0.0000  0.0000  0.0008  0.0000  0.0000  0.0701  0.0000  0.0813  0.0000 </r>
        <r>  0.0001  0.0072  0.0000  0.0027  0.2978  0.0000  0.1833  0.0000  0.1006 </r>
       </set>
       <set comment="band 10">
        <r>  0.0001  0.0072  0.0000  0.0027  0.2978  0.0000  0.1833  0.0000  0.1006 </r>
        <r>  0.0000  0.0000  0.0008  0.0000  0.0000  0.0701  0.0000  0.0813  0.0000 </r>
       </set>
       <set comment="band 11">
        <r>  0.0000  0.0000  0.0045  0.0000  0.0000  0.3355  0.0000  0.1548  0.0000 </r>
        <r>  0.0100  0.0054  0.0000  0.0162  0.0584  0.0000  0.0189  0.0000  0.0938 </r>
       </set>
       <set comment="band 12">
        <r>  0.0100  0.0054  0.0000  0.0162  0.0584  0.0000  0.0189  0.0000  0.0938 </r>
        <r>  0.0000  0.0000  0.0045  0.0000  0.0000  0.3355  0.0000  0.1548  0.0000 </r>
       </set>
       <set comment="band 13">
        <r>  0.0003  0.0055  0.0000  0.0159  0.1401  0.0016  0.0071  0.0008  0.3891 </r>
        <r>  0.0000  0.0001  0.0021  0.0002  0.0015  0.1494  0.0001  0.0745  0.0043 </r>
       </set>
       <set comment="band 14">
        <r>  0.0000  0.0001  0.0021  0.0002  0.0015  0.1494  0.0001  0.0745  0.0043 </r>
        <r>  0.0003  0.0055  0.0000  0.0159  0.1401  0.0016  0.0071  0.0008  0.3891 </r>
       </set>
       <set comment="band 15">
        <r>  0.0000  0.0000  0.0007  0.0000  0.0000  0.1201  0.0000  0.1555  0.0000 </r>
        <r>  0.0000  0.0006  0.0000  0.0002  0.0320  0.0000  0.5956  0.0000  0.0252 </r>
       </set>
       <set comment="band 16">
        <r>  0.0000  0.0006  0.0000  0.0002  0.0320  0.0000  0.5956  0.0000  0.0252 </r>
        <r>  0.0000  0.0000  0.0007  0.0000  0.0000  0.1201  0.0000  0.1555  0.0000 </r>
       </set>
       <set comment="band 17">
        <r>  0.0344  0.0243  0.0000  0.0695  0.0930  0.0000  0.0146  0.0000  0.2032 </r>
        <r>  0.0000  0.0000  0.0334  0.0000  0.0000  0.0234  0.0000  0.0112  0.0000 </r>
       </set>
       <set comment="band 18">
        <r>  0.0000  0.0000  0.0334  0.0000  0.0000  0.0234  0.0000  0.0112  0.0000 </r>
        <r>  0.0344  0.0243  0.0000  0.0695  0.0930  0.0000  0.0146  0.0000  0.2032 </r>
       </set>
       <set comment="band 19">
        <r>  0.0000  0.0000  0.0001  0.0000  0.0000  0.0449  0.0000  0.1023  0.0000 </r>
        <r>  0.3911  0.0056  0.0000  0.0151  0.0689  0.0000  0.0198  0.0000  0.0411 </r>
       </set>
       <set comment="band 20">
        <r>  0.3911  0.0056  0.0000  0.0151  0.0689  0.0000  0.0198  0.0000  0.0411 </r>
        <r>  0.0000  0.0000  0.0001  0.0000  0.0000  0.0449  0.0000  0.1023  0.0000 </r>
       </set>
       <set comment="band 21">
        <r>  0.0000  0.0000  0.0306  0.0000  0.0000  0.0497  0.0000  0.0202  0.0000 </r>
        <r>  0.0382  0.0980  0.0000  0.0375  0.0966  0.0000  0.0015  0.0000  0.0349 </r>
       </set>
       <set comment="band 22">
        <r>  0.0382  0.0980  0.0000  0.0375  0.0966  0.0000  0.0015  0.0000  0.0349 </r>
        <r>  0.0000  0.0000  0.0306  0.0000  0.0000  0.0497  0.0000  0.0202  0.0000 </r>
       </set>
       <set comment="band 23">
        <r>  0.0062  0.0178  0.0000  0.0408  0.0156  0.0000  0.0063  0.0000  0.0151 </r>
        <r>  0.0000  0.0000  0.0989  0.0000  0.0000  0.0229  0.0000  0.0258  0.0000 </r>
       </set>
       <set comment="band 24">
        <r>  0.0000  0.0000  0.0989  0.0000  0.0000  0.0229  0.0000  0.0258  0.0000 </r>
        <r>  0.0062  0.0178  0.0000  0.0408  0.0156  0.0000  0.0063  0.0000  0.0151 </r>
       </set>
      </set>
      <set comment="kpoint 70">
       <set comment="band 1">
        <r>  0.0000  0.6991  0.0000  0.2449  0.0000  0.0000  0.0000  0.0000  0.0000 </r>
        <r>  0.0000  0.0000  0.0422  0.0000  0.0000  0.0000  0.0000  0.0000  0.0000 </r>
       </set>
       <set comment="band 2">
        <r>  0.0000  0.0000  0.0422  0.0000  0.0000  0.0000  0.0000  0.0000  0.0000 </r>
        <r>  0.0000  0.6991  0.0000  0.2449  0.0000  0.0000  0.0000  0.0000  0.0000 </r>
       </set>
       <set comment="band 3">
        <r>  0.0000  0.2555  0.0000  0.7115  0.0000  0.0000  0.0000  0.0000  0.0001 </r>
        <r>  0.0000  0.0000  0.0217  0.0000  0.0000  0.0000  0.0000  0.0000  0.0000 </r>
       </set>
       <set comment="band 4">
        <r>  0.0000  0.0000  0.0217  0.0000  0.0000  0.0000  0.0000  0.0000  0.0000 </r>
        <r>  0.0000  0.2555  0.0000  0.7115  0.0000  0.0000  0.0000  0.0000  0.0001 </r>
       </set>
       <set comment="band 5">
        <r>  0.0000  0.0000  0.9274  0.0000  0.0000  0.0000  0.0000  0.0000  0.0000 </r>
        <r>  0.0000  0.0329  0.0000  0.0322  0.0000  0.0000  0.0000  0.0000  0.0000 </r>
       </set>
       <set comment="band 6">
        <r>  0.0000  0.0329  0.0000  0.0322  0.0000  0.0000  0.0000  0.0000  0.0000 </r>
        <r>  0.0000  0.0000  0.9274  0.0000  0.0000  0.0000  0.0000  0.0000  0.0000 </r>
       </set>
       <set comment="band 7">
        <r>  0.0000  0.0000  0.0003  0.0000  0.0000  0.3159  0.0000  0.1371  0.0000 </r>
        <r>  0.0451  0.0021  0.0000  0.0021  0.0161  0.0000  0.1467  0.0000  0.0212 </r>
       </set>
       <set comment="band 8">
        <r>  0.0451  0.0021  0.0000  0.0021  0.0161  0.0000  0.1467  0.0000  0.0212 </r>
        <r>  0.0000  0.0000  0.0003  0.0000  0.0000  0.3159  0.0000  0.1371  0.0000 </r>
       </set>
       <set comment="band 9">
        <r>  0.0045  0.0067  0.0000  0.0144  0.0923  0.0000  0.0471  0.0001  0.2514 </r>
        <r>  0.0000  0.0000  0.0008  0.0000  0.0000  0.0724  0.0000  0.1929  0.0001 </r>
       </set>
       <set comment="band 10">
        <r>  0.0000  0.0000  0.0008  0.0000  0.0000  0.0724  0.0000  0.1929  0.0001 </r>
        <r>  0.0045  0.0067  0.0000  0.0144  0.0923  0.0000  0.0471  0.0001  0.2514 </r>
       </set>
       <set comment="band 11">
        <r>  0.0000  0.0000  0.0056  0.0000  0.0000  0.0410  0.0000  0.0771  0.0000 </r>
        <r>  0.0020  0.0201  0.0000  0.0103  0.2637  0.0000  0.0304  0.0000  0.2319 </r>
       </set>
       <set comment="band 12">
        <r>  0.0020  0.0201  0.0000  0.0103  0.2637  0.0000  0.0304  0.0000  0.2319 </r>
        <r>  0.0000  0.0000  0.0056  0.0000  0.0000  0.0410  0.0000  0.0771  0.0000 </r>
       </set>
       <set comment="band 13">
        <r>  0.0000  0.0000  0.0002  0.0000  0.0000  0.1568  0.0000  0.2198  0.0000 </r>
        <r>  0.0051  0.0047  0.0000  0.0019  0.2616  0.0000  0.0131  0.0000  0.1647 </r>
       </set>
       <set comment="band 14">
        <r>  0.0051  0.0047  0.0000  0.0019  0.2616  0.0000  0.0131  0.0000  0.1647 </r>
        <r>  0.0000  0.0000  0.0002  0.0000  0.0000  0.1568  0.0000  0.2198  0.0000 </r>
       </set>
       <set comment="band 15">
        <r>  0.0000  0.0000  0.0003  0.0000  0.0000  0.1465  0.0000  0.1216  0.0000 </r>
        <r>  0.0007  0.0006  0.0000  0.0002  0.0222  0.0000  0.6290  0.0000  0.0085 </r>
       </set>
       <set comment="band 16">
        <r>  0.0007  0.0006  0.0000  0.0002  0.0222  0.0000  0.6290  0.0000  0.0085 </r>
        <r>  0.0000  0.0000  0.0003  0.0000  0.0000  0.1465  0.0000  0.1216  0.0000 </r>
       </set>
       <set comment="band 17">
        <r>  0.1609  0.0419  0.0000  0.0166  0.1836  0.0000  0.0082  0.0000  0.0739 </r>
        <r>  0.0000  0.0000  0.0284  0.0000  0.0000  0.0536  0.0000  0.0204  0.0000 </r>
       </set>
       <set comment="band 18">
        <r>  0.0000  0.0000  0.0284  0.0000  0.0000  0.0536  0.0000  0.0204  0.0000 </r>
        <r>  0.1609  0.0419  0.0000  0.0166  0.1836  0.0000  0.0082  0.0000  0.0739 </r>
       </set>
       <set comment="band 19">
        <r>  0.0000  0.0000  0.0182  0.0000  0.0000  0.0438  0.0000  0.0655  0.0000 </r>
        <r>  0.3168  0.0352  0.0000  0.0155  0.0275  0.0000  0.0143  0.0000  0.0195 </r>
       </set>
       <set comment="band 20">
        <r>  0.3168  0.0352  0.0000  0.0155  0.0275  0.0000  0.0143  0.0000  0.0195 </r>
        <r>  0.0000  0.0000  0.0182  0.0000  0.0000  0.0438  0.0000  0.0655  0.0000 </r>
       </set>
       <set comment="band 21">
        <r>  0.0000  0.0000  0.0170  0.0000  0.0000  0.0413  0.0000  0.0462  0.0000 </r>
        <r>  0.0008  0.0455  0.0000  0.0892  0.0697  0.0000  0.0014  0.0000  0.1620 </r>
       </set>
       <set comment="band 22">
        <r>  0.0008  0.0455  0.0000  0.0892  0.0697  0.0000  0.0014  0.0000  0.1620 </r>
        <r>  0.0000  0.0000  0.0170  0.0000  0.0000  0.0413  0.0000  0.0462  0.0000 </r>
       </set>
       <set comment="band 23">
        <r>  0.0021  0.0469  0.0000  0.0239  0.0217  0.0000  0.0040  0.0000  0.0180 </r>
        <r>  0.0000  0.0000  0.1250  0.0000  0.0000  0.0218  0.0000  0.0159  0.0000 </r>
       </set>
       <set comment="band 24">
        <r>  0.0000  0.0000  0.1250  0.0000  0.0000  0.0218  0.0000  0.0159  0.0000 </r>
        <r>  0.0021  0.0469  0.0000  0.0239  0.0217  0.0000  0.0040  0.0000  0.0180 </r>
       </set>
      </set>
     </set>
    </set>
   </array>
  </projected>
 </calculation>
 <structure name="finalpos" >
  <crystal>
   <varray name="basis" >
    <v>       2.78322699       0.00000000       0.00000000 </v>
    <v>      -1.39161349       2.41034527       0.00000000 </v>
    <v>       0.00000000       0.00000000       4.82187589 </v>
   </varray>
   <i name="volume">     32.34773768 </i>
   <varray name="rec_basis" >
    <v>       0.35929517       0.20743916       0.00000000 </v>
    <v>       0.00000000       0.41487832       0.00000000 </v>
    <v>       0.00000000       0.00000000       0.20738817 </v>
   </varray>
  </crystal>
  <varray name="positions" >
   <v>       0.00000000       0.00000000       0.00000000 </v>
   <v>       0.33333333       0.66666667       0.50000000 </v>
  </varray>
 </structure>
</modeling>
