Pt-hcc                                  
           1
     2.835561    0.000000    0.000000
    -1.417781    2.455668    0.000000
     0.000000    0.000000    4.912544
   Pt
     2
Direct configuration=     1
   0.00000000  0.00000000  0.00000000
   0.33333333  0.66666667  0.50000000
