Pt-hcc                                  
           1
     2.783227    0.000000    0.000000
    -1.391613    2.410345    0.000000
     0.000000    0.000000    4.821876
   Pt
     2
Direct configuration=     1
   0.00000000  0.00000000  0.00000000
   0.33333333  0.66666667  0.50000000
