   1   1   1   0
  0.1214556E+02  0.2580145E-09  0.2580145E-09  0.2580145E-09  0.5000000E-15
  1.000000000000000E-004
  CAR 
 Co-fcc                                  
     52.09070533     -1.83671879  301      8.85926057      1.00000000
     -1.837  0.0000E+00  0.0000E+00  0.0000E+00  0.0000E+00
     -1.657  0.0000E+00  0.0000E+00  0.0000E+00  0.0000E+00
     -1.477  0.0000E+00  0.0000E+00  0.0000E+00  0.0000E+00
     -1.297  0.0000E+00  0.0000E+00  0.0000E+00  0.0000E+00
     -1.118  0.0000E+00  0.0000E+00  0.0000E+00  0.0000E+00
     -0.938  0.0000E+00  0.0000E+00  0.0000E+00  0.0000E+00
     -0.758  0.0000E+00  0.0000E+00  0.0000E+00  0.0000E+00
     -0.578  0.0000E+00  0.0000E+00  0.0000E+00  0.0000E+00
     -0.399  0.0000E+00  0.0000E+00  0.0000E+00  0.0000E+00
     -0.219  0.0000E+00  0.0000E+00  0.0000E+00  0.0000E+00
     -0.039  0.0000E+00  0.0000E+00  0.0000E+00  0.0000E+00
      0.141  0.0000E+00  0.0000E+00  0.0000E+00  0.0000E+00
      0.320  0.0000E+00  0.1206E-19  0.0000E+00  0.2168E-20
      0.500  0.5790E-07  0.1319E-06  0.1041E-07  0.2372E-07
      0.680  0.2058E-03  0.2102E-03  0.3701E-04  0.3780E-04
      0.860  0.1145E-04  0.7073E-05  0.3907E-04  0.3907E-04
      1.039  0.5773E-03  0.5964E-03  0.1428E-03  0.1463E-03
      1.219  0.7463E-04  0.5549E-04  0.1563E-03  0.1563E-03
      1.399  0.5637E-03  0.5700E-03  0.2576E-03  0.2587E-03
      1.579  0.8831E-04  0.8196E-04  0.2735E-03  0.2734E-03
      1.758  0.7848E-03  0.7592E-03  0.4145E-03  0.4099E-03
      1.938  0.8508E-04  0.1102E-03  0.4298E-03  0.4297E-03
      2.118  0.1259E-02  0.1200E-02  0.6562E-03  0.6455E-03
      2.298  0.6491E-04  0.1048E-03  0.6679E-03  0.6643E-03
      2.477  0.6304E-03  0.6420E-03  0.7812E-03  0.7797E-03
      2.657  0.2651E-03  0.2411E-04  0.8288E-03  0.7840E-03
      2.837  0.1041E-02  0.1285E-02  0.1016E-02  0.1015E-02
      3.017  0.1738E-02  0.4122E-03  0.1328E-02  0.1089E-02
      3.197  0.3454E-03  0.1547E-02  0.1391E-02  0.1367E-02
      3.376  0.6884E-03  0.5221E-03  0.1514E-02  0.1461E-02
      3.556  0.1107E-02  0.2069E-03  0.1713E-02  0.1498E-02
      3.736  0.2197E-02  0.1424E-02  0.2108E-02  0.1754E-02
      3.916  0.1634E-02  0.1578E-02  0.2402E-02  0.2038E-02
      4.095  0.2106E-02  0.4128E-03  0.2781E-02  0.2112E-02
      4.275  0.4965E-02  0.1627E-02  0.3673E-02  0.2405E-02
      4.455  0.8070E-02  0.1172E-02  0.5124E-02  0.2615E-02
      4.635  0.5588E-02  0.1158E-02  0.6128E-02  0.2823E-02
      4.814  0.1091E-01  0.2586E-02  0.8090E-02  0.3288E-02
      4.994  0.9016E-02  0.1712E-02  0.9711E-02  0.3596E-02
      5.174  0.1189E-01  0.2470E-02  0.1185E-01  0.4040E-02
      5.354  0.9412E-02  0.4987E-02  0.1354E-01  0.4936E-02
      5.533  0.1089E-01  0.2749E-02  0.1550E-01  0.5431E-02
      5.713  0.8457E-02  0.6589E-02  0.1702E-01  0.6615E-02
      5.893  0.1150E-01  0.2954E-02  0.1908E-01  0.7146E-02
      6.073  0.1494E-01  0.6942E-02  0.2177E-01  0.8394E-02
      6.252  0.1598E-01  0.5864E-02  0.2464E-01  0.9448E-02
      6.432  0.2008E-01  0.1036E-01  0.2825E-01  0.1131E-01
      6.612  0.1688E-01  0.7582E-02  0.3128E-01  0.1267E-01
      6.792  0.1139E-01  0.8521E-02  0.3333E-01  0.1421E-01
      6.971  0.1395E-01  0.8311E-02  0.3584E-01  0.1570E-01
      7.151  0.1769E-01  0.7586E-02  0.3902E-01  0.1706E-01
      7.331  0.1226E-01  0.1255E-01  0.4122E-01  0.1932E-01
      7.511  0.1198E-01  0.9932E-02  0.4337E-01  0.2110E-01
      7.690  0.1537E-01  0.1201E-01  0.4614E-01  0.2326E-01
      7.870  0.1834E-01  0.1094E-01  0.4943E-01  0.2523E-01
      8.050  0.1526E-01  0.1345E-01  0.5218E-01  0.2765E-01
      8.230  0.3139E-02  0.1392E-01  0.5274E-01  0.3015E-01
      8.409  0.6204E-03  0.1137E-01  0.5285E-01  0.3219E-01
      8.589  0.7839E-03  0.8737E-02  0.5299E-01  0.3376E-01
      8.769  0.3134E-02  0.7742E-02  0.5356E-01  0.3515E-01
      8.949  0.1529E-02  0.1346E-01  0.5383E-01  0.3757E-01
      9.129  0.5497E-03  0.1130E-01  0.5393E-01  0.3960E-01
      9.308  0.9240E-03  0.1432E-01  0.5410E-01  0.4218E-01
      9.488  0.2837E-02  0.8384E-02  0.5461E-01  0.4369E-01
      9.668  0.1740E-02  0.1596E-01  0.5492E-01  0.4655E-01
      9.848  0.1051E-02  0.2158E-01  0.5511E-01  0.5043E-01
     10.027  0.8940E-03  0.1321E-01  0.5527E-01  0.5281E-01
     10.207  0.1537E-02  0.5015E-03  0.5554E-01  0.5290E-01
     10.387  0.1412E-03  0.5081E-02  0.5557E-01  0.5381E-01
     10.567  0.2272E-02  0.2180E-02  0.5598E-01  0.5420E-01
     10.746  0.9407E-03  0.1600E-02  0.5615E-01  0.5449E-01
     10.926  0.2795E-02  0.1161E-02  0.5665E-01  0.5470E-01
     11.106  0.1701E-02  0.1880E-02  0.5696E-01  0.5504E-01
     11.286  0.6364E-03  0.2595E-02  0.5707E-01  0.5551E-01
     11.465  0.7918E-04  0.2245E-02  0.5708E-01  0.5591E-01
     11.645  0.1225E-02  0.8452E-03  0.5730E-01  0.5606E-01
     11.825  0.6057E-04  0.1890E-02  0.5732E-01  0.5640E-01
     12.005  0.2832E-02  0.2497E-02  0.5782E-01  0.5685E-01
     12.184  0.2113E-02  0.1230E-02  0.5820E-01  0.5707E-01
     12.364  0.8154E-03  0.6501E-04  0.5835E-01  0.5708E-01
     12.544  0.4613E-04  0.2197E-02  0.5836E-01  0.5748E-01
     12.724  0.9570E-03  0.9032E-03  0.5853E-01  0.5764E-01
     12.903  0.2302E-02  0.2050E-02  0.5895E-01  0.5801E-01
     13.083  0.8201E-06  0.1214E-02  0.5895E-01  0.5823E-01
     13.263  0.2504E-03  0.8762E-03  0.5899E-01  0.5838E-01
     13.443  0.1053E-02  0.5227E-03  0.5918E-01  0.5848E-01
     13.622  0.1086E-03  0.2558E-02  0.5920E-01  0.5894E-01
     13.802  0.9060E-03  0.1053E-03  0.5936E-01  0.5896E-01
     13.982  0.1036E-02  0.1243E-02  0.5955E-01  0.5918E-01
     14.162  0.1560E-02  0.4344E-06  0.5983E-01  0.5918E-01
     14.342  0.1137E-02  0.2877E-03  0.6003E-01  0.5923E-01
     14.521  0.1120E-02  0.1664E-02  0.6023E-01  0.5953E-01
     14.701  0.1362E-02  0.5044E-03  0.6048E-01  0.5962E-01
     14.881  0.1914E-02  0.8030E-03  0.6082E-01  0.5977E-01
     15.061  0.1938E-02  0.1417E-05  0.6117E-01  0.5977E-01
     15.240  0.1523E-02  0.1293E-02  0.6145E-01  0.6000E-01
     15.420  0.1032E-02  0.2708E-02  0.6163E-01  0.6049E-01
     15.600  0.1577E-02  0.1832E-02  0.6191E-01  0.6081E-01
     15.780  0.1362E-02  0.1944E-02  0.6216E-01  0.6116E-01
     15.959  0.1243E-02  0.1589E-02  0.6238E-01  0.6145E-01
     16.139  0.1799E-05  0.1334E-02  0.6238E-01  0.6169E-01
     16.319  0.1974E-02  0.1318E-02  0.6274E-01  0.6193E-01
     16.499  0.2894E-02  0.2537E-02  0.6326E-01  0.6238E-01
     16.678  0.3618E-03  0.2890E-05  0.6332E-01  0.6238E-01
     16.858  0.1859E-02  0.1210E-02  0.6366E-01  0.6260E-01
     17.038  0.7332E-03  0.3225E-02  0.6379E-01  0.6318E-01
     17.218  0.6094E-03  0.6887E-03  0.6390E-01  0.6330E-01
     17.397  0.7737E-03  0.1308E-02  0.6404E-01  0.6354E-01
     17.577  0.1195E-02  0.1391E-02  0.6425E-01  0.6379E-01
     17.757  0.1846E-02  0.2861E-03  0.6458E-01  0.6384E-01
     17.937  0.3384E-02  0.1031E-02  0.6519E-01  0.6403E-01
     18.116  0.3743E-03  0.1283E-02  0.6526E-01  0.6426E-01
     18.296  0.1384E-02  0.1164E-02  0.6551E-01  0.6447E-01
     18.476  0.3358E-02  0.2027E-02  0.6611E-01  0.6483E-01
     18.656  0.2125E-02  0.2384E-02  0.6649E-01  0.6526E-01
     18.835  0.1412E-02  0.1013E-02  0.6675E-01  0.6544E-01
     19.015  0.1807E-02  0.3881E-02  0.6707E-01  0.6614E-01
     19.195  0.1933E-02  0.1877E-02  0.6742E-01  0.6648E-01
     19.375  0.5061E-03  0.1682E-02  0.6751E-01  0.6678E-01
     19.554  0.1018E-02  0.1965E-02  0.6769E-01  0.6713E-01
     19.734  0.1681E-02  0.1601E-02  0.6800E-01  0.6742E-01
     19.914  0.2669E-02  0.1296E-02  0.6848E-01  0.6765E-01
     20.094  0.4079E-02  0.2596E-03  0.6921E-01  0.6770E-01
     20.274  0.6818E-03  0.3114E-02  0.6933E-01  0.6826E-01
     20.453  0.1168E-02  0.2586E-02  0.6954E-01  0.6872E-01
     20.633  0.4633E-02  0.2768E-02  0.7038E-01  0.6922E-01
     20.813  0.1377E-02  0.1217E-02  0.7062E-01  0.6944E-01
     20.993  0.1683E-02  0.2960E-02  0.7093E-01  0.6997E-01
     21.172  0.1006E-02  0.3259E-02  0.7111E-01  0.7056E-01
     21.352  0.1260E-02  0.1091E-02  0.7133E-01  0.7075E-01
     21.532  0.2798E-02  0.1934E-02  0.7184E-01  0.7110E-01
     21.712  0.3329E-02  0.1260E-02  0.7243E-01  0.7133E-01
     21.891  0.1705E-02  0.1751E-02  0.7274E-01  0.7164E-01
     22.071  0.1806E-02  0.3420E-02  0.7307E-01  0.7226E-01
     22.251  0.1307E-02  0.2653E-02  0.7330E-01  0.7273E-01
     22.431  0.3383E-02  0.1955E-02  0.7391E-01  0.7309E-01
     22.610  0.1872E-02  0.2601E-02  0.7425E-01  0.7355E-01
     22.790  0.1189E-02  0.1764E-02  0.7446E-01  0.7387E-01
     22.970  0.2448E-02  0.2243E-02  0.7490E-01  0.7427E-01
     23.150  0.2209E-02  0.2131E-02  0.7530E-01  0.7466E-01
     23.329  0.2568E-02  0.1210E-02  0.7576E-01  0.7487E-01
     23.509  0.3145E-02  0.2563E-02  0.7632E-01  0.7533E-01
     23.689  0.1758E-02  0.3137E-02  0.7664E-01  0.7590E-01
     23.869  0.2258E-02  0.2334E-02  0.7704E-01  0.7632E-01
     24.048  0.4140E-02  0.2199E-02  0.7779E-01  0.7671E-01
     24.228  0.1218E-02  0.2984E-02  0.7801E-01  0.7725E-01
     24.408  0.2573E-03  0.3601E-02  0.7805E-01  0.7790E-01
     24.588  0.4176E-02  0.6170E-03  0.7880E-01  0.7801E-01
     24.767  0.2065E-02  0.2499E-02  0.7918E-01  0.7846E-01
     24.947  0.1364E-02  0.2663E-02  0.7942E-01  0.7894E-01
     25.127  0.2548E-02  0.2017E-02  0.7988E-01  0.7930E-01
     25.307  0.4858E-03  0.7843E-03  0.7997E-01  0.7944E-01
     25.487  0.2040E-02  0.2516E-02  0.8033E-01  0.7989E-01
     25.666  0.1106E-02  0.1523E-02  0.8053E-01  0.8017E-01
     25.846  0.2405E-02  0.1799E-02  0.8096E-01  0.8049E-01
     26.026  0.2876E-02  0.1351E-02  0.8148E-01  0.8073E-01
     26.206  0.1721E-02  0.2246E-02  0.8179E-01  0.8114E-01
     26.385  0.2658E-02  0.2818E-02  0.8227E-01  0.8164E-01
     26.565  0.6372E-03  0.2216E-02  0.8238E-01  0.8204E-01
     26.745  0.1232E-02  0.1892E-02  0.8260E-01  0.8238E-01
     26.925  0.2647E-02  0.6012E-03  0.8308E-01  0.8249E-01
     27.104  0.3237E-04  0.1603E-02  0.8309E-01  0.8278E-01
     27.284  0.2104E-02  0.1721E-02  0.8346E-01  0.8309E-01
     27.464  0.3111E-02  0.2040E-02  0.8402E-01  0.8345E-01
     27.644  0.2228E-02  0.3179E-02  0.8442E-01  0.8402E-01
     27.823  0.1243E-02  0.1371E-02  0.8465E-01  0.8427E-01
     28.003  0.1166E-02  0.1231E-02  0.8486E-01  0.8449E-01
     28.183  0.2006E-02  0.1159E-02  0.8522E-01  0.8470E-01
     28.363  0.1278E-02  0.2140E-02  0.8545E-01  0.8509E-01
     28.542  0.2243E-02  0.2001E-02  0.8585E-01  0.8544E-01
     28.722  0.2194E-02  0.2495E-02  0.8624E-01  0.8589E-01
     28.902  0.3151E-02  0.1321E-02  0.8681E-01  0.8613E-01
     29.082  0.2229E-02  0.3960E-02  0.8721E-01  0.8684E-01
     29.261  0.2502E-02  0.2161E-02  0.8766E-01  0.8723E-01
     29.441  0.1923E-02  0.3355E-02  0.8801E-01  0.8783E-01
     29.621  0.2627E-02  0.1355E-02  0.8848E-01  0.8808E-01
     29.801  0.1130E-02  0.1904E-02  0.8868E-01  0.8842E-01
     29.980  0.2378E-02  0.1268E-02  0.8911E-01  0.8865E-01
     30.160  0.4409E-02  0.3049E-02  0.8990E-01  0.8920E-01
     30.340  0.3771E-02  0.5665E-02  0.9058E-01  0.9021E-01
     30.520  0.1876E-02  0.2625E-02  0.9092E-01  0.9069E-01
     30.699  0.2845E-02  0.1548E-02  0.9143E-01  0.9096E-01
     30.879  0.3233E-02  0.2300E-02  0.9201E-01  0.9138E-01
     31.059  0.2263E-02  0.4246E-02  0.9242E-01  0.9214E-01
     31.239  0.2216E-02  0.1293E-02  0.9282E-01  0.9237E-01
     31.419  0.3769E-02  0.3893E-02  0.9349E-01  0.9307E-01
     31.598  0.3065E-02  0.2724E-02  0.9404E-01  0.9356E-01
     31.778  0.1976E-02  0.3205E-02  0.9440E-01  0.9414E-01
     31.958  0.2987E-02  0.1199E-03  0.9494E-01  0.9416E-01
     32.138  0.2224E-02  0.3739E-02  0.9534E-01  0.9483E-01
     32.317  0.2895E-02  0.2278E-02  0.9586E-01  0.9524E-01
     32.497  0.4334E-02  0.5513E-02  0.9664E-01  0.9623E-01
     32.677  0.1103E-02  0.1079E-02  0.9683E-01  0.9643E-01
     32.857  0.2864E-02  0.1888E-02  0.9735E-01  0.9677E-01
     33.036  0.2893E-02  0.3418E-02  0.9787E-01  0.9738E-01
     33.216  0.3006E-02  0.3666E-02  0.9841E-01  0.9804E-01
     33.396  0.3116E-02  0.1452E-02  0.9897E-01  0.9830E-01
     33.576  0.1331E-03  0.3070E-02  0.9899E-01  0.9885E-01
     33.755  0.1670E-02  0.1378E-02  0.9929E-01  0.9910E-01
     33.935  0.3097E-03  0.1089E-05  0.9935E-01  0.9910E-01
     34.115  0.2991E-02  0.2165E-02  0.9989E-01  0.9949E-01
     34.295  0.2570E-02  0.2755E-02  0.1003E+00  0.9999E-01
     34.474  0.9591E-03  0.1382E-02  0.1005E+00  0.1002E+00
     34.654  0.1175E-02  0.6338E-03  0.1007E+00  0.1003E+00
     34.834  0.3012E-03  0.7005E-03  0.1008E+00  0.1005E+00
     35.014  0.2818E-02  0.1729E-02  0.1013E+00  0.1008E+00
     35.193  0.1717E-02  0.3441E-02  0.1016E+00  0.1014E+00
     35.373  0.3311E-03  0.1213E-02  0.1017E+00  0.1016E+00
     35.553  0.1899E-02  0.7157E-03  0.1020E+00  0.1018E+00
     35.733  0.3878E-02  0.1149E-02  0.1027E+00  0.1020E+00
     35.912  0.2381E-02  0.2077E-02  0.1031E+00  0.1023E+00
     36.092  0.4266E-02  0.3189E-02  0.1039E+00  0.1029E+00
     36.272  0.2901E-02  0.3134E-02  0.1044E+00  0.1035E+00
     36.452  0.3495E-02  0.5220E-02  0.1050E+00  0.1044E+00
     36.632  0.4023E-02  0.3680E-02  0.1058E+00  0.1051E+00
     36.811  0.2379E-02  0.4506E-02  0.1062E+00  0.1059E+00
     36.991  0.4736E-02  0.1549E-02  0.1070E+00  0.1062E+00
     37.171  0.1639E-02  0.2425E-02  0.1073E+00  0.1066E+00
     37.351  0.1364E-02  0.4813E-02  0.1076E+00  0.1075E+00
     37.530  0.8239E-03  0.9145E-03  0.1077E+00  0.1076E+00
     37.710  0.2514E-02  0.6726E-03  0.1082E+00  0.1077E+00
     37.890  0.2711E-02  0.2946E-02  0.1087E+00  0.1083E+00
     38.070  0.2535E-02  0.2908E-02  0.1091E+00  0.1088E+00
     38.249  0.2251E-02  0.2961E-02  0.1095E+00  0.1093E+00
     38.429  0.2305E-02  0.2065E-02  0.1099E+00  0.1097E+00
     38.609  0.6072E-02  0.1579E-02  0.1110E+00  0.1100E+00
     38.789  0.9136E-03  0.3448E-02  0.1112E+00  0.1106E+00
     38.968  0.1663E-02  0.3631E-02  0.1115E+00  0.1113E+00
     39.148  0.1013E-02  0.2252E-02  0.1117E+00  0.1117E+00
     39.328  0.1831E-02  0.7690E-03  0.1120E+00  0.1118E+00
     39.508  0.1085E-02  0.1636E-04  0.1122E+00  0.1118E+00
     39.687  0.2793E-02  0.3813E-02  0.1127E+00  0.1125E+00
     39.867  0.4416E-03  0.9776E-03  0.1128E+00  0.1127E+00
     40.047  0.4651E-02  0.2983E-02  0.1136E+00  0.1132E+00
     40.227  0.2725E-02  0.3124E-02  0.1141E+00  0.1138E+00
     40.406  0.1355E-03  0.1934E-02  0.1141E+00  0.1141E+00
     40.586  0.3574E-02  0.6299E-03  0.1148E+00  0.1142E+00
     40.766  0.9883E-03  0.1162E-02  0.1150E+00  0.1144E+00
     40.946  0.1689E-06  0.2692E-02  0.1150E+00  0.1149E+00
     41.125  0.4258E-03  0.2706E-03  0.1150E+00  0.1150E+00
     41.305  0.3189E-02  0.4122E-03  0.1156E+00  0.1150E+00
     41.485  0.1682E-02  0.2734E-02  0.1159E+00  0.1155E+00
     41.665  0.2687E-02  0.2002E-02  0.1164E+00  0.1159E+00
     41.844  0.2447E-02  0.3684E-02  0.1168E+00  0.1165E+00
     42.024  0.6575E-06  0.1597E-02  0.1168E+00  0.1168E+00
     42.204  0.1646E-11  0.1847E-05  0.1168E+00  0.1168E+00
     42.384  0.2495E-03  0.4373E-05  0.1169E+00  0.1168E+00
     42.564  0.3093E-02  0.1587E-02  0.1174E+00  0.1171E+00
     42.743  0.1472E-02  0.2037E-02  0.1177E+00  0.1175E+00
     42.923  0.1768E-02  0.2236E-02  0.1180E+00  0.1179E+00
     43.103  0.1106E-02  0.4906E-04  0.1182E+00  0.1179E+00
     43.283  0.1351E-03  0.1880E-02  0.1182E+00  0.1182E+00
     43.462  0.1819E-02  0.7207E-04  0.1186E+00  0.1182E+00
     43.642  0.1365E-03  0.1911E-02  0.1186E+00  0.1186E+00
     43.822  0.0000E+00  0.2199E-05  0.1186E+00  0.1186E+00
     44.002  0.9861E-09  0.1216E-08  0.1186E+00  0.1186E+00
     44.181  0.7931E-03  0.8140E-03  0.1187E+00  0.1187E+00
     44.361  0.5108E-03  0.4899E-03  0.1188E+00  0.1188E+00
     44.541  0.5453E-10  0.4318E-10  0.1188E+00  0.1188E+00
     44.721  0.7548E-12  0.4705E-18  0.1188E+00  0.1188E+00
     44.900  0.2063E-03  0.1225E-05  0.1189E+00  0.1188E+00
     45.080  0.1402E-02  0.1134E-02  0.1191E+00  0.1190E+00
     45.260  0.9828E-03  0.1466E-02  0.1193E+00  0.1193E+00
     45.440  0.1608E-04  0.5990E-05  0.1193E+00  0.1193E+00
     45.619  0.3243E-03  0.0000E+00  0.1194E+00  0.1193E+00
     45.799  0.3373E-02  0.0000E+00  0.1200E+00  0.1193E+00
     45.979  0.2142E-03  0.7263E-07  0.1200E+00  0.1193E+00
     46.159  0.9545E-12  0.5985E-03  0.1200E+00  0.1194E+00
     46.338  0.0000E+00  0.1646E-03  0.1200E+00  0.1194E+00
     46.518  0.0000E+00  0.1192E-02  0.1200E+00  0.1196E+00
     46.698  0.0000E+00  0.1329E-06  0.1200E+00  0.1196E+00
     46.878  0.0000E+00  0.0000E+00  0.1200E+00  0.1196E+00
     47.057  0.0000E+00  0.5304E-10  0.1200E+00  0.1196E+00
     47.237  0.0000E+00  0.2863E-03  0.1200E+00  0.1197E+00
     47.417  0.0000E+00  0.3657E-03  0.1200E+00  0.1198E+00
     47.597  0.0000E+00  0.2665E-09  0.1200E+00  0.1198E+00
     47.777  0.0000E+00  0.0000E+00  0.1200E+00  0.1198E+00
     47.956  0.0000E+00  0.0000E+00  0.1200E+00  0.1198E+00
     48.136  0.0000E+00  0.0000E+00  0.1200E+00  0.1198E+00
     48.316  0.0000E+00  0.7962E-18  0.1200E+00  0.1198E+00
     48.496  0.0000E+00  0.1501E-05  0.1200E+00  0.1198E+00
     48.675  0.0000E+00  0.6425E-03  0.1200E+00  0.1199E+00
     48.855  0.0000E+00  0.7950E-05  0.1200E+00  0.1199E+00
     49.035  0.0000E+00  0.0000E+00  0.1200E+00  0.1199E+00
     49.215  0.0000E+00  0.0000E+00  0.1200E+00  0.1199E+00
     49.394  0.0000E+00  0.1341E-14  0.1200E+00  0.1199E+00
     49.574  0.0000E+00  0.2102E-04  0.1200E+00  0.1199E+00
     49.754  0.0000E+00  0.6305E-03  0.1200E+00  0.1200E+00
     49.934  0.0000E+00  0.3958E-06  0.1200E+00  0.1200E+00
     50.113  0.0000E+00  0.0000E+00  0.1200E+00  0.1200E+00
     50.293  0.0000E+00  0.0000E+00  0.1200E+00  0.1200E+00
     50.473  0.0000E+00  0.0000E+00  0.1200E+00  0.1200E+00
     50.653  0.0000E+00  0.0000E+00  0.1200E+00  0.1200E+00
     50.832  0.0000E+00  0.0000E+00  0.1200E+00  0.1200E+00
     51.012  0.0000E+00  0.0000E+00  0.1200E+00  0.1200E+00
     51.192  0.0000E+00  0.0000E+00  0.1200E+00  0.1200E+00
     51.372  0.0000E+00  0.0000E+00  0.1200E+00  0.1200E+00
     51.551  0.0000E+00  0.0000E+00  0.1200E+00  0.1200E+00
     51.731  0.0000E+00  0.0000E+00  0.1200E+00  0.1200E+00
     51.911  0.0000E+00  0.0000E+00  0.1200E+00  0.1200E+00
     52.091  0.0000E+00  0.0000E+00  0.1200E+00  0.1200E+00
     52.09070533     -1.83671879  301      8.85926057      1.00000000
     -1.837  0.0000E+00  0.0000E+00  0.0000E+00  0.0000E+00  0.0000E+00  0.0000E+00  0.0000E+00  0.0000E+00  0.0000E+00  0.0000E+00  0.0000E+00  0.0000E+00  0.0000E+00  0.0000E+00  0.0000E+00  0.0000E+00  0.0000E+00  0.0000E+00
     -1.657  0.0000E+00  0.0000E+00  0.0000E+00  0.0000E+00  0.0000E+00  0.0000E+00  0.0000E+00  0.0000E+00  0.0000E+00  0.0000E+00  0.0000E+00  0.0000E+00  0.0000E+00  0.0000E+00  0.0000E+00  0.0000E+00  0.0000E+00  0.0000E+00
     -1.477  0.0000E+00  0.0000E+00  0.0000E+00  0.0000E+00  0.0000E+00  0.0000E+00  0.0000E+00  0.0000E+00  0.0000E+00  0.0000E+00  0.0000E+00  0.0000E+00  0.0000E+00  0.0000E+00  0.0000E+00  0.0000E+00  0.0000E+00  0.0000E+00
     -1.297  0.0000E+00  0.0000E+00  0.0000E+00  0.0000E+00  0.0000E+00  0.0000E+00  0.0000E+00  0.0000E+00  0.0000E+00  0.0000E+00  0.0000E+00  0.0000E+00  0.0000E+00  0.0000E+00  0.0000E+00  0.0000E+00  0.0000E+00  0.0000E+00
     -1.118  0.0000E+00  0.0000E+00  0.0000E+00  0.0000E+00  0.0000E+00  0.0000E+00  0.0000E+00  0.0000E+00  0.0000E+00  0.0000E+00  0.0000E+00  0.0000E+00  0.0000E+00  0.0000E+00  0.0000E+00  0.0000E+00  0.0000E+00  0.0000E+00
     -0.938  0.0000E+00  0.0000E+00  0.0000E+00  0.0000E+00  0.0000E+00  0.0000E+00  0.0000E+00  0.0000E+00  0.0000E+00  0.0000E+00  0.0000E+00  0.0000E+00  0.0000E+00  0.0000E+00  0.0000E+00  0.0000E+00  0.0000E+00  0.0000E+00
     -0.758  0.0000E+00  0.0000E+00  0.0000E+00  0.0000E+00  0.0000E+00  0.0000E+00  0.0000E+00  0.0000E+00  0.0000E+00  0.0000E+00  0.0000E+00  0.0000E+00  0.0000E+00  0.0000E+00  0.0000E+00  0.0000E+00  0.0000E+00  0.0000E+00
     -0.578  0.0000E+00  0.0000E+00  0.0000E+00  0.0000E+00  0.0000E+00  0.0000E+00  0.0000E+00  0.0000E+00  0.0000E+00  0.0000E+00  0.0000E+00  0.0000E+00  0.0000E+00  0.0000E+00  0.0000E+00  0.0000E+00  0.0000E+00  0.0000E+00
     -0.399  0.0000E+00  0.0000E+00  0.0000E+00  0.0000E+00  0.0000E+00  0.0000E+00  0.0000E+00  0.0000E+00  0.0000E+00  0.0000E+00  0.0000E+00  0.0000E+00  0.0000E+00  0.0000E+00  0.0000E+00  0.0000E+00  0.0000E+00  0.0000E+00
     -0.219  0.0000E+00  0.0000E+00  0.0000E+00  0.0000E+00  0.0000E+00  0.0000E+00  0.0000E+00  0.0000E+00  0.0000E+00  0.0000E+00  0.0000E+00  0.0000E+00  0.0000E+00  0.0000E+00  0.0000E+00  0.0000E+00  0.0000E+00  0.0000E+00
     -0.039  0.0000E+00  0.0000E+00  0.0000E+00  0.0000E+00  0.0000E+00  0.0000E+00  0.0000E+00  0.0000E+00  0.0000E+00  0.0000E+00  0.0000E+00  0.0000E+00  0.0000E+00  0.0000E+00  0.0000E+00  0.0000E+00  0.0000E+00  0.0000E+00
      0.141  0.0000E+00  0.0000E+00  0.0000E+00  0.0000E+00  0.0000E+00  0.0000E+00  0.0000E+00  0.0000E+00  0.0000E+00  0.0000E+00  0.0000E+00  0.0000E+00  0.0000E+00  0.0000E+00  0.0000E+00  0.0000E+00  0.0000E+00  0.0000E+00
      0.320  0.0000E+00  0.7560E-18  0.0000E+00  0.3489E-20  0.0000E+00  0.3489E-20  0.0000E+00  0.3489E-20  0.0000E+00  0.4024E-22  0.0000E+00  0.4024E-22  0.0000E+00  0.5098E-36  0.0000E+00  0.4024E-22  0.0000E+00  0.5098E-36
      0.500  0.3650E-05  0.8269E-05  0.1669E-07  0.3816E-07  0.1669E-07  0.3816E-07  0.1669E-07  0.3816E-07  0.2758E-09  0.4401E-09  0.2758E-09  0.4401E-09  0.9731E-23  0.5576E-23  0.2758E-09  0.4401E-09  0.9731E-23  0.5576E-23
      0.680  0.1298E-01  0.1317E-01  0.5933E-04  0.6079E-04  0.5933E-04  0.6079E-04  0.5933E-04  0.6079E-04  0.9804E-06  0.7010E-06  0.9804E-06  0.7010E-06  0.3459E-19  0.8882E-20  0.9804E-06  0.7010E-06  0.3459E-19  0.8882E-20
      0.860  0.7220E-03  0.4431E-03  0.3326E-05  0.2096E-05  0.3326E-05  0.2096E-05  0.3326E-05  0.2096E-05  0.5547E-07  0.2482E-07  0.5547E-07  0.2482E-07  0.1448E-08  0.1962E-08  0.5547E-07  0.2482E-07  0.1448E-08  0.1962E-08
      1.039  0.3506E-01  0.3599E-01  0.5956E-03  0.6183E-03  0.5956E-03  0.6183E-03  0.5956E-03  0.6183E-03  0.1838E-04  0.1296E-04  0.1838E-04  0.1296E-04  0.2466E-04  0.1750E-04  0.1838E-04  0.1296E-04  0.2466E-04  0.1750E-04
      1.219  0.4532E-02  0.3349E-02  0.7700E-04  0.5755E-04  0.7700E-04  0.5755E-04  0.7700E-04  0.5755E-04  0.2379E-05  0.1208E-05  0.2379E-05  0.1208E-05  0.3188E-05  0.1628E-05  0.2379E-05  0.1208E-05  0.3188E-05  0.1628E-05
      1.399  0.3291E-01  0.3309E-01  0.9665E-03  0.9878E-03  0.9665E-03  0.9878E-03  0.9665E-03  0.9878E-03  0.1007E-03  0.6747E-04  0.1007E-03  0.6747E-04  0.2306E-04  0.1604E-04  0.1007E-03  0.6747E-04  0.2306E-04  0.1604E-04
      1.579  0.5156E-02  0.4759E-02  0.1515E-03  0.1421E-03  0.1515E-03  0.1421E-03  0.1515E-03  0.1421E-03  0.1579E-04  0.9703E-05  0.1579E-04  0.9703E-05  0.3629E-05  0.2312E-05  0.1579E-04  0.9703E-05  0.3629E-05  0.2312E-05
      1.758  0.4385E-01  0.4227E-01  0.1863E-02  0.1828E-02  0.1863E-02  0.1828E-02  0.1863E-02  0.1828E-02  0.1624E-03  0.9941E-04  0.1624E-03  0.9941E-04  0.2790E-03  0.1715E-03  0.1624E-03  0.9941E-04  0.2790E-03  0.1715E-03
      1.938  0.4751E-02  0.6133E-02  0.2031E-03  0.2658E-03  0.2031E-03  0.2658E-03  0.2031E-03  0.2658E-03  0.1515E-04  0.1298E-04  0.1515E-04  0.1298E-04  0.3316E-04  0.2653E-04  0.1515E-04  0.1298E-04  0.3316E-04  0.2653E-04
      2.118  0.6731E-01  0.6409E-01  0.3728E-02  0.3631E-02  0.3728E-02  0.3631E-02  0.3728E-02  0.3631E-02  0.6542E-03  0.3934E-03  0.6542E-03  0.3934E-03  0.4577E-03  0.2759E-03  0.6542E-03  0.3934E-03  0.4577E-03  0.2759E-03
      2.298  0.3413E-02  0.5592E-02  0.1994E-03  0.3176E-03  0.1994E-03  0.3176E-03  0.1994E-03  0.3176E-03  0.5235E-04  0.3501E-04  0.5235E-04  0.3501E-04  0.2051E-04  0.2396E-04  0.5235E-04  0.3501E-04  0.2051E-04  0.2396E-04
      2.477  0.3202E-01  0.3283E-01  0.2083E-02  0.2234E-02  0.2083E-02  0.2234E-02  0.2083E-02  0.2234E-02  0.8822E-03  0.5227E-03  0.8822E-03  0.5227E-03  0.1374E-03  0.8714E-04  0.8822E-03  0.5227E-03  0.1374E-03  0.8714E-04
      2.657  0.1265E-01  0.1192E-02  0.1051E-02  0.9417E-04  0.1051E-02  0.9417E-04  0.1051E-02  0.9417E-04  0.1949E-03  0.1479E-04  0.1949E-03  0.1479E-04  0.4821E-03  0.1570E-04  0.1949E-03  0.1479E-04  0.4821E-03  0.1570E-04
      2.837  0.4982E-01  0.6234E-01  0.4122E-02  0.5321E-02  0.4122E-02  0.5321E-02  0.4122E-02  0.5321E-02  0.9469E-03  0.6719E-03  0.9469E-03  0.6719E-03  0.1584E-02  0.1161E-02  0.9469E-03  0.6719E-03  0.1584E-02  0.1161E-02
      3.017  0.7808E-01  0.1909E-01  0.7211E-02  0.1818E-02  0.7211E-02  0.1818E-02  0.7211E-02  0.1818E-02  0.3497E-02  0.5734E-03  0.3497E-02  0.5734E-03  0.2715E-02  0.2560E-03  0.3497E-02  0.5734E-03  0.2715E-02  0.2560E-03
      3.197  0.1510E-01  0.7137E-01  0.1496E-02  0.7007E-02  0.1496E-02  0.7007E-02  0.1496E-02  0.7007E-02  0.6537E-03  0.1556E-02  0.6537E-03  0.1556E-02  0.7414E-03  0.1534E-02  0.6537E-03  0.1556E-02  0.7414E-03  0.1534E-02
      3.376  0.2812E-01  0.2285E-01  0.2787E-02  0.2521E-02  0.2787E-02  0.2521E-02  0.2787E-02  0.2521E-02  0.2903E-02  0.8629E-03  0.2903E-02  0.8629E-03  0.9750E-03  0.5487E-03  0.2903E-02  0.8629E-03  0.9750E-03  0.5487E-03
      3.556  0.4353E-01  0.8890E-02  0.5330E-02  0.9645E-03  0.5330E-02  0.9645E-03  0.5330E-02  0.9645E-03  0.4039E-02  0.5309E-03  0.4039E-02  0.5309E-03  0.1875E-02  0.1387E-03  0.4039E-02  0.5309E-03  0.1875E-02  0.1387E-03
      3.736  0.7647E-01  0.5899E-01  0.9135E-02  0.7560E-02  0.9135E-02  0.7560E-02  0.9135E-02  0.7560E-02  0.1077E-01  0.3092E-02  0.1077E-01  0.3092E-02  0.9424E-02  0.1285E-02  0.1077E-01  0.3092E-02  0.9424E-02  0.1285E-02
      3.916  0.4782E-01  0.6074E-01  0.6142E-02  0.8124E-02  0.6142E-02  0.8124E-02  0.6142E-02  0.8124E-02  0.1045E-01  0.4330E-02  0.1045E-01  0.4330E-02  0.1100E-01  0.3665E-02  0.1045E-01  0.4330E-02  0.1100E-01  0.3665E-02
      4.095  0.4867E-01  0.1575E-01  0.5678E-02  0.2150E-02  0.5678E-02  0.2150E-02  0.5678E-02  0.2150E-02  0.2238E-01  0.9524E-03  0.2238E-01  0.9524E-03  0.1512E-01  0.1239E-02  0.2238E-01  0.9524E-03  0.1512E-01  0.1239E-02
      4.275  0.8120E-01  0.5678E-01  0.9611E-02  0.8828E-02  0.9611E-02  0.8828E-02  0.9611E-02  0.8828E-02  0.4784E-01  0.4110E-02  0.4784E-01  0.4110E-02  0.7331E-01  0.7068E-02  0.4784E-01  0.4110E-02  0.7331E-01  0.7068E-02
      4.455  0.1096E+00  0.3929E-01  0.1606E-01  0.6299E-02  0.1606E-01  0.6299E-02  0.1606E-01  0.6299E-02  0.6425E-01  0.5331E-02  0.6425E-01  0.5331E-02  0.1531E+00  0.3082E-02  0.6425E-01  0.5331E-02  0.1531E+00  0.3082E-02
      4.635  0.4983E-01  0.3744E-01  0.7182E-02  0.6275E-02  0.7182E-02  0.6275E-02  0.7182E-02  0.6275E-02  0.7114E-01  0.7035E-02  0.7114E-01  0.7035E-02  0.9516E-01  0.1468E-02  0.7114E-01  0.7035E-02  0.9516E-01  0.1468E-02
      4.814  0.7356E-01  0.7503E-01  0.1736E-01  0.1308E-01  0.1736E-01  0.1308E-01  0.1736E-01  0.1308E-01  0.1419E+00  0.1713E-01  0.1419E+00  0.1713E-01  0.1913E+00  0.8746E-02  0.1419E+00  0.1713E-01  0.1913E+00  0.8746E-02
      4.994  0.2894E-01  0.4292E-01  0.9009E-02  0.7058E-02  0.9009E-02  0.7058E-02  0.9009E-02  0.7058E-02  0.1754E+00  0.1196E-01  0.1754E+00  0.1196E-01  0.1092E+00  0.1251E-01  0.1754E+00  0.1196E-01  0.1092E+00  0.1251E-01
      5.174  0.2476E-01  0.5099E-01  0.1770E-01  0.8031E-02  0.1770E-01  0.8031E-02  0.1770E-01  0.8031E-02  0.2252E+00  0.2270E-01  0.2252E+00  0.2270E-01  0.1508E+00  0.2217E-01  0.2252E+00  0.2270E-01  0.1508E+00  0.2217E-01
      5.354  0.9053E-02  0.9856E-01  0.1495E-01  0.1831E-01  0.1495E-01  0.1831E-01  0.1495E-01  0.1831E-01  0.1890E+00  0.5099E-01  0.1890E+00  0.5099E-01  0.1110E+00  0.3678E-01  0.1890E+00  0.5099E-01  0.1110E+00  0.3678E-01
      5.533  0.4765E-02  0.3456E-01  0.1713E-01  0.6378E-02  0.1713E-01  0.6378E-02  0.1713E-01  0.6378E-02  0.2002E+00  0.1714E-01  0.2002E+00  0.1714E-01  0.1619E+00  0.5584E-01  0.2002E+00  0.1714E-01  0.1619E+00  0.5584E-01
      5.713  0.3210E-02  0.8294E-01  0.1094E-01  0.1637E-01  0.1094E-01  0.1637E-01  0.1094E-01  0.1637E-01  0.1615E+00  0.6525E-01  0.1615E+00  0.6525E-01  0.1247E+00  0.9915E-01  0.1615E+00  0.6525E-01  0.1247E+00  0.9915E-01
      5.893  0.8131E-02  0.2922E-01  0.1422E-01  0.7946E-02  0.1422E-01  0.7946E-02  0.1422E-01  0.7946E-02  0.2313E+00  0.2757E-01  0.2313E+00  0.2757E-01  0.1551E+00  0.5111E-01  0.2313E+00  0.2757E-01  0.1551E+00  0.5111E-01
      6.073  0.1299E-01  0.5239E-01  0.2201E-01  0.1826E-01  0.2201E-01  0.1826E-01  0.2201E-01  0.1826E-01  0.3180E+00  0.7562E-01  0.3180E+00  0.7562E-01  0.1712E+00  0.1169E+00  0.3180E+00  0.7562E-01  0.1712E+00  0.1169E+00
      6.252  0.1870E-01  0.1451E-01  0.2234E-01  0.6783E-02  0.2234E-01  0.6783E-02  0.2234E-01  0.6783E-02  0.3026E+00  0.1082E+00  0.3026E+00  0.1082E+00  0.2438E+00  0.7475E-01  0.3026E+00  0.1082E+00  0.2438E+00  0.7475E-01
      6.432  0.1959E-01  0.2453E-01  0.2152E-01  0.2242E-01  0.2152E-01  0.2242E-01  0.2152E-01  0.2242E-01  0.4009E+00  0.1917E+00  0.4009E+00  0.1917E+00  0.2989E+00  0.1120E+00  0.4009E+00  0.1917E+00  0.2989E+00  0.1120E+00
      6.612  0.1403E-01  0.2785E-02  0.1866E-01  0.1547E-01  0.1866E-01  0.1547E-01  0.1866E-01  0.1547E-01  0.3205E+00  0.1514E+00  0.3205E+00  0.1514E+00  0.2790E+00  0.7874E-01  0.3205E+00  0.1514E+00  0.2790E+00  0.7874E-01
      6.792  0.6087E-02  0.4281E-02  0.8813E-02  0.1848E-01  0.8813E-02  0.1848E-01  0.8813E-02  0.1848E-01  0.1429E+00  0.1707E+00  0.1429E+00  0.1707E+00  0.3109E+00  0.8690E-01  0.1429E+00  0.1707E+00  0.3109E+00  0.8690E-01
      6.971  0.7753E-02  0.1279E-02  0.1602E-01  0.2259E-01  0.1602E-01  0.2259E-01  0.1602E-01  0.2259E-01  0.1391E+00  0.1397E+00  0.1391E+00  0.1397E+00  0.4239E+00  0.1154E+00  0.1391E+00  0.1397E+00  0.4239E+00  0.1154E+00
      7.151  0.1054E-01  0.1599E-02  0.9186E-02  0.1617E-01  0.9186E-02  0.1617E-01  0.9186E-02  0.1617E-01  0.1967E+00  0.1782E+00  0.1967E+00  0.1782E+00  0.5376E+00  0.4497E-01  0.1967E+00  0.1782E+00  0.5376E+00  0.4497E-01