 vasp.6.3.2 27Jun22 (build Aug 12 2022 00:53:59) complex                        
  
 executed on               tv2STD date 2024.12.03  02:19:51
 running   28 mpi-ranks, with    1 threads/rank
 distrk:  each k-point on   28 cores,    1 groups
 distr:  one band on NCORE=   7 cores,    4 groups


--------------------------------------------------------------------------------------------------------


 INCAR:
   SYSTEM = Co-fcc
   NWRITE = 2    write-flag
   ISTART = 0    job   : 0-new, 1-cont, 2-samecut
   ICHARG = 2    charge: 0-wave, 1-file, 2-atom, >10-const
   INIWAV = 1    electr: 0-lowe 1-rand  2-diag
   ENCUT = 400.0     energy cutoff in eV
   PREC = Accurate      normal | accurate
   ADDGRID = .FALSE.  (use fine grid)
   NELM = 100     number of ELM steps
   EDIFF = 1E-06    energy stopping-criterion for ELM
   LREAL = .FALSE.      real-space projection (.FALSE., .TRUE., On, Auto)
   ALGO = Normal     Normal, Fast, Very_Fast
   LWAVE = .TRUE.
   LCHARG = .TRUE.
   NSW = 100       max number of geometry steps
   IBRION = 2     ionic relax: 0-MD, 1-quasi-Newton, 2-CG, 3-Damped MD
   EDIFFG = -0.02  force (eV/A) stopping-criterion for geometry steps
   ISIF = 2     (1:force\=y stress\=trace only ions\=y shape\=n volume\=n)
   ISYM = 1     (1-use symmetry, 0-no symmetry)
   ISMEAR = 0     (-1-Fermi, 1-Methfessel/Paxton)
   SIGMA = 0.05   broadening in eV
   LORBIT = 11
   NPAR = 4
   ISPIN = 2
   MAGMOM = 1*3

 POTCAR:    PAW_PBE Co 02Aug2007                  
 POTCAR:    PAW_PBE Co 02Aug2007                  
   SHA256 =  0e690c60710354995174544f52f9f2c30879afabeffe3b3fbd4001cb294e56d4 Co/POTCAR             
   COPYR  = (c) Copyright 02Aug2007 Georg Kresse                                                    
   COPYR  = This file is part of the software VASP. Any use, copying, and all other rights are regul
   COPYR  = If you do not have a valid VASP license, you may not use, copy or distribute this file. 
   VRHFIN =Co: d8 s1                                                                                
   LEXCH  = PE                                                                                      
   EATOM  =   813.3670 eV,   59.7808 Ry                                                             
                                                                                                    
   TITEL  = PAW_PBE Co 02Aug2007                                                                    
   LULTRA =        F    use ultrasoft PP ?                                                          
   IUNSCR =        1    unscreen: 0-lin 1-nonlin 2-no                                               
   RPACOR =    2.000    partial core radius                                                         
   POMASS =   58.933; ZVAL   =    9.000    mass and valenz                                          
   RCORE  =    2.300    outmost cutoff radius                                                       
   RWIGS  =    2.460; RWIGS  =    1.302    wigner-seitz radius (au A)                               
   ENMAX  =  267.968; ENMIN  =  200.976 eV                                                          
   RCLOC  =    1.203    cutoff for local pot                                                        
   LCOR   =        T    correct aug charges                                                         
   LPAW   =        T    paw PP                                                                      
   EAUG   =  477.818                                                                                
   DEXC   =    0.000                                                                                
   RMAX   =    2.360    core radius for proj-oper                                                   
   RAUG   =    1.300    factor for augmentation sphere                                              
   RDEP   =    2.393    radius for radial grids                                                     
   RDEPT  =    1.864    core radius for aug-charge                                                  
                                                                                                    
   Atomic configuration                                                                             
    9 entries                                                                                       
     n  l   j            E        occ.                                                              
     1  0  0.50     -7587.6674   2.0000                                                             
     2  0  0.50      -893.6084   2.0000                                                             
     2  1  1.50      -764.5805   6.0000                                                             
     3  0  0.50       -97.5973   2.0000                                                             
     3  1  1.50       -60.9648   6.0000                                                             
     3  2  2.50        -4.2382   8.0000                                                             
     4  0  0.50        -4.3746   1.0000                                                             
     4  1  1.50        -4.0817   0.0000                                                             
     4  3  2.50        -1.3606   0.0000                                                             
   Description                                                                                      
     l       E           TYP  RCUT    TYP  RCUT                                                     
     2     -4.2382362     23  2.300                                                                 
     2     -5.5988188     23  2.300                                                                 
     0     -4.3745797     23  2.300                                                                 
     0      5.7660125     23  2.300                                                                 
     1     -2.7211652     23  2.300                                                                 
     1     16.9860234     23  2.300                                                                 
  local pseudopotential read in
  partial core-charges read in
  partial kinetic energy density read in
  atomic valenz-charges read in
  non local Contribution for L=           2  read in
    real space projection operators read in
  non local Contribution for L=           2  read in
    real space projection operators read in
  non local Contribution for L=           0  read in
    real space projection operators read in
  non local Contribution for L=           0  read in
    real space projection operators read in
  non local Contribution for L=           1  read in
    real space projection operators read in
  non local Contribution for L=           1  read in
    real space projection operators read in
    PAW grid and wavefunctions read in
 
   number of l-projection  operators is LMAX  =           6
   number of lm-projection operators is LMMAX =          18
 
  PAW_PBE Co 02Aug2007                  :
 energy of atom  1       EATOM= -813.3670
 kinetic energy error for atom=    0.0093 (will be added to EATOM!!)
 
 
 POSCAR: Co
  positions in cartesian coordinates
  No initial velocities read in
 exchange correlation table for  LEXCH =        8
   RHO(1)=    0.500       N(1)  =     2000
   RHO(2)=  100.500       N(2)  =     4000
 


--------------------------------------------------------------------------------------------------------


 ion  position               nearest neighbor table
   1  0.000  0.000  0.000-
 
  LATTYP: Found a face centered cubic cell.
 ALAT       =     3.6488765179
  
  Lattice vectors:
  
 A1 = (   0.0000000000,   1.8244382590,   1.8244382590)
 A2 = (   1.8244382590,   0.0000000000,   1.8244382590)
 A3 = (   1.8244382590,   1.8244382590,   0.0000000000)


Analysis of symmetry for initial positions (statically):
=====================================================================
 Subroutine PRICEL returns:
 Original cell was already a primitive cell.
 

 Routine SETGRP: Setting up the symmetry group for a 
 face centered cubic supercell.


 Subroutine GETGRP returns: Found 48 space group operations
 (whereof 48 operations were pure point group operations)
 out of a pool of 48 trial point group operations.


The static configuration has the point symmetry O_h .


Analysis of symmetry for dynamics (positions and initial velocities):
=====================================================================
 Subroutine PRICEL returns:
 Original cell was already a primitive cell.
 

 Routine SETGRP: Setting up the symmetry group for a 
 face centered cubic supercell.


 Subroutine GETGRP returns: Found 48 space group operations
 (whereof 48 operations were pure point group operations)
 out of a pool of 48 trial point group operations.


The dynamic configuration has the point symmetry O_h .


Analysis of structural, dynamic, and magnetic symmetry:
=====================================================================
 Subroutine PRICEL returns:
 Original cell was already a primitive cell.
 

 Routine SETGRP: Setting up the symmetry group for a 
 face centered cubic supercell.


 Subroutine GETGRP returns: Found 48 space group operations
 (whereof 48 operations were pure point group operations)
 out of a pool of 48 trial point group operations.


The overall configuration has the point symmetry O_h .


 Subroutine INISYM returns: Found 48 space group operations
 (whereof 48 operations are pure point group operations),
 and found     1 'primitive' translations


----------------------------------------------------------------------------------------

                                     Primitive cell                                     

  volume of cell :      12.1456

  direct lattice vectors                    reciprocal lattice vectors
     0.000000000  1.824438259  1.824438259    -0.274056958  0.274056958  0.274056958
     1.824438259  0.000000000  1.824438259     0.274056958 -0.274056958  0.274056958
     1.824438259  1.824438259  0.000000000     0.274056958  0.274056958 -0.274056958

  length of vectors
     2.580145330  2.580145330  2.580145330     0.474680576  0.474680576  0.474680576

  position of ions in fractional coordinates (direct lattice)
     0.000000000  0.000000000  0.000000000

  ion indices of the primitive-cell ions
   primitive index   ion index
                 1           1

----------------------------------------------------------------------------------------

 
 
 KPOINTS: Automatic mesh                          

Automatic generation of k-mesh.
 Grid dimensions read from file:
 generate k-points for:    8    8    8

 Generating k-lattice:

  Cartesian coordinates                     Fractional coordinates (reciprocal lattice)
    -0.034257120  0.034257120  0.034257120     0.125000000  0.000000000  0.000000000
     0.034257120 -0.034257120  0.034257120     0.000000000  0.125000000  0.000000000
     0.034257120  0.034257120 -0.034257120     0.000000000  0.000000000  0.125000000

  Length of vectors
     0.059335072  0.059335072  0.059335072

  Shift w.r.t. Gamma in fractional coordinates (k-lattice)
     0.500000000  0.500000000  0.500000000

 
 Subroutine IBZKPT returns following result:
 ===========================================
 
 Found     60 irreducible k-points:
 
 Following reciprocal coordinates:
            Coordinates               Weight
  0.062500  0.062500  0.062500      8.000000
  0.187500  0.062500  0.062500     24.000000
  0.312500  0.062500  0.062500     24.000000
  0.437500  0.062500  0.062500     24.000000
 -0.437500  0.062500  0.062500     24.000000
 -0.312500  0.062500  0.062500     24.000000
 -0.187500  0.062500  0.062500     24.000000
 -0.062500  0.062500  0.062500     24.000000
  0.187500  0.187500  0.062500     24.000000
  0.312500  0.187500  0.062500     48.000000
  0.437500  0.187500  0.062500     48.000000
 -0.437500  0.187500  0.062500     48.000000
 -0.312500  0.187500  0.062500     48.000000
 -0.187500  0.187500  0.062500     48.000000
 -0.062500  0.187500  0.062500     48.000000
  0.312500  0.312500  0.062500     24.000000
  0.437500  0.312500  0.062500     48.000000
 -0.437500  0.312500  0.062500     48.000000
 -0.312500  0.312500  0.062500     48.000000
 -0.187500  0.312500  0.062500     48.000000
 -0.062500  0.312500  0.062500     48.000000
  0.437500  0.437500  0.062500     24.000000
 -0.437500  0.437500  0.062500     48.000000
 -0.312500  0.437500  0.062500     48.000000
 -0.187500  0.437500  0.062500     48.000000
 -0.062500  0.437500  0.062500     48.000000
 -0.437500 -0.437500  0.062500     24.000000
 -0.312500 -0.437500  0.062500     48.000000
 -0.187500 -0.437500  0.062500     48.000000
 -0.312500 -0.312500  0.062500     24.000000
 -0.187500 -0.312500  0.062500     48.000000
 -0.187500 -0.187500  0.062500     24.000000
  0.187500  0.187500  0.187500      8.000000
  0.312500  0.187500  0.187500     24.000000
  0.437500  0.187500  0.187500     24.000000
 -0.437500  0.187500  0.187500     24.000000
 -0.312500  0.187500  0.187500     24.000000
 -0.187500  0.187500  0.187500     24.000000
  0.312500  0.312500  0.187500     24.000000
  0.437500  0.312500  0.187500     48.000000
 -0.437500  0.312500  0.187500     48.000000
 -0.312500  0.312500  0.187500     48.000000
 -0.187500  0.312500  0.187500     48.000000
  0.437500  0.437500  0.187500     24.000000
 -0.437500  0.437500  0.187500     48.000000
 -0.312500  0.437500  0.187500     48.000000
 -0.187500  0.437500  0.187500     48.000000
 -0.437500 -0.437500  0.187500     24.000000
 -0.312500 -0.437500  0.187500     48.000000
 -0.312500 -0.312500  0.187500     24.000000
  0.312500  0.312500  0.312500      8.000000
  0.437500  0.312500  0.312500     24.000000
 -0.437500  0.312500  0.312500     24.000000
 -0.312500  0.312500  0.312500     24.000000
  0.437500  0.437500  0.312500     24.000000
 -0.437500  0.437500  0.312500     48.000000
 -0.312500  0.437500  0.312500     48.000000
 -0.437500 -0.437500  0.312500     24.000000
  0.437500  0.437500  0.437500      8.000000
 -0.437500  0.437500  0.437500     24.000000
 
 Following cartesian coordinates:
            Coordinates               Weight
  0.017129  0.017129  0.017129      8.000000
 -0.017129  0.051386  0.051386     24.000000
 -0.051386  0.085643  0.085643     24.000000
 -0.085643  0.119900  0.119900     24.000000
  0.154157 -0.119900 -0.119900     24.000000
  0.119900 -0.085643 -0.085643     24.000000
  0.085643 -0.051386 -0.051386     24.000000
  0.051386 -0.017129 -0.017129     24.000000
  0.017129  0.017129  0.085643     24.000000
 -0.017129  0.051386  0.119900     48.000000
 -0.051386  0.085643  0.154157     48.000000
  0.188414 -0.154157 -0.085643     48.000000
  0.154157 -0.119900 -0.051386     48.000000
  0.119900 -0.085643 -0.017129     48.000000
  0.085643 -0.051386  0.017129     48.000000
  0.017129  0.017129  0.154157     24.000000
 -0.017129  0.051386  0.188414     48.000000
  0.222671 -0.188414 -0.051386     48.000000
  0.188414 -0.154157 -0.017129     48.000000
  0.154157 -0.119900  0.017129     48.000000
  0.119900 -0.085643  0.051386     48.000000
  0.017129  0.017129  0.222671     24.000000
  0.256928 -0.222671 -0.017129     48.000000
  0.222671 -0.188414  0.017129     48.000000
  0.188414 -0.154157  0.051386     48.000000
  0.154157 -0.119900  0.085643     48.000000
  0.017129  0.017129 -0.256928     24.000000
 -0.017129  0.051386 -0.222671     48.000000
 -0.051386  0.085643 -0.188414     48.000000
  0.017129  0.017129 -0.188414     24.000000
 -0.017129  0.051386 -0.154157     48.000000
  0.017129  0.017129 -0.119900     24.000000
  0.051386  0.051386  0.051386      8.000000
  0.017129  0.085643  0.085643     24.000000
 -0.017129  0.119900  0.119900     24.000000
  0.222671 -0.119900 -0.119900     24.000000
  0.188414 -0.085643 -0.085643     24.000000
  0.154157 -0.051386 -0.051386     24.000000
  0.051386  0.051386  0.119900     24.000000
  0.017129  0.085643  0.154157     48.000000
  0.256928 -0.154157 -0.085643     48.000000
  0.222671 -0.119900 -0.051386     48.000000
  0.188414 -0.085643 -0.017129     48.000000
  0.051386  0.051386  0.188414     24.000000
  0.291186 -0.188414 -0.051386     48.000000
  0.256928 -0.154157 -0.017129     48.000000
  0.222671 -0.119900  0.017129     48.000000
  0.051386  0.051386 -0.291186     24.000000
  0.017129  0.085643 -0.256928     48.000000
  0.051386  0.051386 -0.222671     24.000000
  0.085643  0.085643  0.085643      8.000000
  0.051386  0.119900  0.119900     24.000000
  0.291186 -0.119900 -0.119900     24.000000
  0.256928 -0.085643 -0.085643     24.000000
  0.085643  0.085643  0.154157     24.000000
  0.325443 -0.154157 -0.085643     48.000000
  0.291186 -0.119900 -0.051386     48.000000
  0.085643  0.085643 -0.325443     24.000000
  0.119900  0.119900  0.119900      8.000000
  0.359700 -0.119900 -0.119900     24.000000
 


--------------------------------------------------------------------------------------------------------




 Dimension of arrays:
   k-points           NKPTS =     60   k-points in BZ     NKDIM =     60   number of bands    NBANDS=     12
   number of dos      NEDOS =    301   number of ions     NIONS =      1
   non local maximal  LDIM  =      6   non local SUM 2l+1 LMDIM =     18
   total plane-waves  NPLWV =   5832
   max r-space proj   IRMAX =      1   max aug-charges    IRDMAX=  19135
   dimension x,y,z NGX =    18 NGY =   18 NGZ =   18
   dimension x,y,z NGXF=    36 NGYF=   36 NGZF=   36
   support grid    NGXF=    36 NGYF=   36 NGZF=   36
   ions per type =               1
   NGX,Y,Z   is equivalent  to a cutoff of  11.60, 11.60, 11.60 a.u.
   NGXF,Y,Z  is equivalent  to a cutoff of  23.20, 23.20, 23.20 a.u.

 SYSTEM =  Co-fcc                                  
 POSCAR =  Co                                      

 Startparameter for this run:
   NWRITE =      2    write-flag & timer
   PREC   = accura    normal or accurate (medium, high low for compatibility)
   ISTART =      0    job   : 0-new  1-cont  2-samecut
   ICHARG =      2    charge: 1-file 2-atom 10-const
   ISPIN  =      2    spin polarized calculation?
   LNONCOLLINEAR =      F non collinear calculations
   LSORBIT =      F    spin-orbit coupling
   INIWAV =      1    electr: 0-lowe 1-rand  2-diag
   LASPH  =      F    aspherical Exc in radial PAW
 Electronic Relaxation 1
   ENCUT  =  400.0 eV  29.40 Ry    5.42 a.u.   4.21  4.21  4.21*2*pi/ulx,y,z
   ENINI  =  400.0     initial cutoff
   ENAUG  =  477.8 eV  augmentation charge cutoff
   NELM   =    100;   NELMIN=  2; NELMDL= -5     # of ELM steps 
   EDIFF  = 0.1E-05   stopping-criterion for ELM
   LREAL  =      F    real-space projection
   NLSPLINE    = F    spline interpolate recip. space projectors
   LCOMPAT=      F    compatible to vasp.4.4
   GGA_COMPAT  = T    GGA compatible to vasp.4.4-vasp.4.6
   LMAXPAW     = -100 max onsite density
   LMAXMIX     =    2 max onsite mixed and CHGCAR
   VOSKOWN=      0    Vosko Wilk Nusair interpolation
   ROPT   =    0.00000
 Ionic relaxation
   EDIFFG = -.2E-01   stopping-criterion for IOM
   NSW    =    100    number of steps for IOM
   NBLOCK =      1;   KBLOCK =    100    inner block; outer block 
   IBRION =      2    ionic relax: 0-MD 1-quasi-New 2-CG
   NFREE  =      1    steps in history (QN), initial steepest desc. (CG)
   ISIF   =      2    stress and relaxation
   IWAVPR =     11    prediction:  0-non 1-charg 2-wave 3-comb
   ISYM   =      1    0-nonsym 1-usesym 2-fastsym
   LCORR  =      T    Harris-Foulkes like correction to forces

   POTIM  = 0.5000    time-step for ionic-motion
   TEIN   =    0.0    initial temperature
   TEBEG  =    0.0;   TEEND  =   0.0 temperature during run
   SMASS  =  -3.00    Nose mass-parameter (am)
   estimated Nose-frequenzy (Omega)   =  0.10E-29 period in steps = 0.13E+47 mass=  -0.152E-27a.u.
   SCALEE = 1.0000    scale energy and forces
   NPACO  =    256;   APACO  = 10.0  distance and # of slots for P.C.
   PSTRESS=    0.0 pullay stress

  Mass of Ions in am
   POMASS =  58.93
  Ionic Valenz
   ZVAL   =   9.00
  Atomic Wigner-Seitz radii
   RWIGS  =  -1.00
  virtual crystal weights 
   VCA    =   1.00
   NELECT =       9.0000    total number of electrons
   NUPDOWN=      -1.0000    fix difference up-down

 DOS related values:
   EMIN   =  10.00;   EMAX   =-10.00  energy-range for DOS
   EFERMI =   0.00
   ISMEAR =     0;   SIGMA  =   0.05  broadening in eV -4-tet -1-fermi 0-gaus

 Electronic relaxation 2 (details)
   IALGO  =     38    algorithm
   LDIAG  =      T    sub-space diagonalisation (order eigenvalues)
   LSUBROT=      F    optimize rotation matrix (better conditioning)
   TURBO    =      0    0=normal 1=particle mesh
   IRESTART =      0    0=no restart 2=restart with 2 vectors
   NREBOOT  =      0    no. of reboots
   NMIN     =      0    reboot dimension
   EREF     =   0.00    reference energy to select bands
   IMIX   =      4    mixing-type and parameters
     AMIX     =   0.40;   BMIX     =  1.00
     AMIX_MAG =   1.60;   BMIX_MAG =  1.00
     AMIN     =   0.10
     WC   =   100.;   INIMIX=   1;  MIXPRE=   1;  MAXMIX= -45

 Intra band minimization:
   WEIMIN = 0.0010     energy-eigenvalue tresh-hold
   EBREAK =  0.21E-07  absolut break condition
   DEPER  =   0.30     relativ break condition  

   TIME   =   0.40     timestep for ELM

  volume/ion in A,a.u.               =      12.15        81.96
  Fermi-wavevector in a.u.,A,eV,Ry     =   1.481437  2.799510 29.860099  2.194655
  Thomas-Fermi vector in A             =   2.595347
 
 Write flags
   LWAVE        =      T    write WAVECAR
   LDOWNSAMPLE  =      F    k-point downsampling of WAVECAR
   LCHARG       =      T    write CHGCAR
   LVTOT        =      F    write LOCPOT, total local potential
   LVHAR        =      F    write LOCPOT, Hartree potential only
   LELF         =      F    write electronic localiz. function (ELF)
   LORBIT       =     11    0 simple, 1 ext, 2 COOP (PROOUT), +10 PAW based schemes


 Dipole corrections
   LMONO  =      F    monopole corrections only (constant potential shift)
   LDIPOL =      F    correct potential (dipole corrections)
   IDIPOL =      0    1-x, 2-y, 3-z, 4-all directions 
   EPSILON=  1.0000000 bulk dielectric constant

 Exchange correlation treatment:
   GGA     =    --    GGA type
   LEXCH   =     8    internal setting for exchange type
   LIBXC   =     F    Libxc                    
   VOSKOWN =     0    Vosko Wilk Nusair interpolation
   LHFCALC =     F    Hartree Fock is set to
   LHFONE  =     F    Hartree Fock one center treatment
   AEXX    =    0.0000 exact exchange contribution

 Linear response parameters
   LEPSILON=     F    determine dielectric tensor
   LRPA    =     F    only Hartree local field effects (RPA)
   LNABLA  =     F    use nabla operator in PAW spheres
   LVEL    =     F    velocity operator in full k-point grid
   CSHIFT  =0.1000    complex shift for real part using Kramers Kronig
   OMEGAMAX=  -1.0    maximum frequency
   DEG_THRESHOLD= 0.2000000E-02 threshold for treating states as degnerate
   RTIME   =   -0.100 relaxation time in fs
  (WPLASMAI=    0.000 imaginary part of plasma frequency in eV, 0.658/RTIME)
   DFIELD  = 0.0000000 0.0000000 0.0000000 field for delta impulse in time
 
  Optional k-point grid parameters
   LKPOINTS_OPT  =     F    use optional k-point grid
   KPOINTS_OPT_MODE=     1    mode for optional k-point grid
 
 Orbital magnetization related:
   ORBITALMAG=     F  switch on orbital magnetization
   LCHIMAG   =     F  perturbation theory with respect to B field
   DQ        =  0.001000  dq finite difference perturbation B field
   LLRAUG    =     F  two centre corrections for induced B field



--------------------------------------------------------------------------------------------------------


 conjugate gradient relaxation of ions
 charge density and potential will be updated during run
 spin polarized calculation
 Variant of blocked Davidson
 Davidson routine will perform the subspace rotation
 perform sub-space diagonalisation
    after iterative eigenvector-optimisation
 modified Broyden-mixing scheme, WC =      100.0
 initial mixing is a Kerker type mixing with AMIX =  0.4000 and BMIX =      1.0000
 Hartree-type preconditioning will be used
 using additional bands            7
 reciprocal scheme for non local part
 use partial core corrections
 calculate Harris-corrections to forces 
   (improved forces if not selfconsistent)
 use gradient corrections 
 use of overlap-Matrix (Vanderbilt PP)
 Gauss-broadening in eV      SIGMA  =   0.05


--------------------------------------------------------------------------------------------------------


  energy-cutoff  :      400.00
  volume of cell :       12.15
      direct lattice vectors                 reciprocal lattice vectors
     0.000000000  1.824438259  1.824438259    -0.274056958  0.274056958  0.274056958
     1.824438259  0.000000000  1.824438259     0.274056958 -0.274056958  0.274056958
     1.824438259  1.824438259  0.000000000     0.274056958  0.274056958 -0.274056958

  length of vectors
     2.580145330  2.580145330  2.580145330     0.474680576  0.474680576  0.474680576


 
 k-points in units of 2pi/SCALE and weight: Automatic mesh                          
   0.01712856  0.01712856  0.01712856       0.004
  -0.01712856  0.05138568  0.05138568       0.012
  -0.05138568  0.08564280  0.08564280       0.012
  -0.08564280  0.11989992  0.11989992       0.012
   0.15415704 -0.11989992 -0.11989992       0.012
   0.11989992 -0.08564280 -0.08564280       0.012
   0.08564280 -0.05138568 -0.05138568       0.012
   0.05138568 -0.01712856 -0.01712856       0.012
   0.01712856  0.01712856  0.08564280       0.012
  -0.01712856  0.05138568  0.11989992       0.023
  -0.05138568  0.08564280  0.15415704       0.023
   0.18841416 -0.15415704 -0.08564280       0.023
   0.15415704 -0.11989992 -0.05138568       0.023
   0.11989992 -0.08564280 -0.01712856       0.023
   0.08564280 -0.05138568  0.01712856       0.023
   0.01712856  0.01712856  0.15415704       0.012
  -0.01712856  0.05138568  0.18841416       0.023
   0.22267128 -0.18841416 -0.05138568       0.023
   0.18841416 -0.15415704 -0.01712856       0.023
   0.15415704 -0.11989992  0.01712856       0.023
   0.11989992 -0.08564280  0.05138568       0.023
   0.01712856  0.01712856  0.22267128       0.012
   0.25692840 -0.22267128 -0.01712856       0.023
   0.22267128 -0.18841416  0.01712856       0.023
   0.18841416 -0.15415704  0.05138568       0.023
   0.15415704 -0.11989992  0.08564280       0.023
   0.01712856  0.01712856 -0.25692840       0.012
  -0.01712856  0.05138568 -0.22267128       0.023
  -0.05138568  0.08564280 -0.18841416       0.023
   0.01712856  0.01712856 -0.18841416       0.012
  -0.01712856  0.05138568 -0.15415704       0.023
   0.01712856  0.01712856 -0.11989992       0.012
   0.05138568  0.05138568  0.05138568       0.004
   0.01712856  0.08564280  0.08564280       0.012
  -0.01712856  0.11989992  0.11989992       0.012
   0.22267128 -0.11989992 -0.11989992       0.012
   0.18841416 -0.08564280 -0.08564280       0.012
   0.15415704 -0.05138568 -0.05138568       0.012
   0.05138568  0.05138568  0.11989992       0.012
   0.01712856  0.08564280  0.15415704       0.023
   0.25692840 -0.15415704 -0.08564280       0.023
   0.22267128 -0.11989992 -0.05138568       0.023
   0.18841416 -0.08564280 -0.01712856       0.023
   0.05138568  0.05138568  0.18841416       0.012
   0.29118552 -0.18841416 -0.05138568       0.023
   0.25692840 -0.15415704 -0.01712856       0.023
   0.22267128 -0.11989992  0.01712856       0.023
   0.05138568  0.05138568 -0.29118552       0.012
   0.01712856  0.08564280 -0.25692840       0.023
   0.05138568  0.05138568 -0.22267128       0.012
   0.08564280  0.08564280  0.08564280       0.004
   0.05138568  0.11989992  0.11989992       0.012
   0.29118552 -0.11989992 -0.11989992       0.012
   0.25692840 -0.08564280 -0.08564280       0.012
   0.08564280  0.08564280  0.15415704       0.012
   0.32544264 -0.15415704 -0.08564280       0.023
   0.29118552 -0.11989992 -0.05138568       0.023
   0.08564280  0.08564280 -0.32544264       0.012
   0.11989992  0.11989992  0.11989992       0.004
   0.35969976 -0.11989992 -0.11989992       0.012
 
 k-points in reciprocal lattice and weights: Automatic mesh                          
   0.06250000  0.06250000  0.06250000       0.004
   0.18750000  0.06250000  0.06250000       0.012
   0.31250000  0.06250000  0.06250000       0.012
   0.43750000  0.06250000  0.06250000       0.012
  -0.43750000  0.06250000  0.06250000       0.012
  -0.31250000  0.06250000  0.06250000       0.012
  -0.18750000  0.06250000  0.06250000       0.012
  -0.06250000  0.06250000  0.06250000       0.012
   0.18750000  0.18750000  0.06250000       0.012
   0.31250000  0.18750000  0.06250000       0.023
   0.43750000  0.18750000  0.06250000       0.023
  -0.43750000  0.18750000  0.06250000       0.023
  -0.31250000  0.18750000  0.06250000       0.023
  -0.18750000  0.18750000  0.06250000       0.023
  -0.06250000  0.18750000  0.06250000       0.023
   0.31250000  0.31250000  0.06250000       0.012
   0.43750000  0.31250000  0.06250000       0.023
  -0.43750000  0.31250000  0.06250000       0.023
  -0.31250000  0.31250000  0.06250000       0.023
  -0.18750000  0.31250000  0.06250000       0.023
  -0.06250000  0.31250000  0.06250000       0.023
   0.43750000  0.43750000  0.06250000       0.012
  -0.43750000  0.43750000  0.06250000       0.023
  -0.31250000  0.43750000  0.06250000       0.023
  -0.18750000  0.43750000  0.06250000       0.023
  -0.06250000  0.43750000  0.06250000       0.023
  -0.43750000 -0.43750000  0.06250000       0.012
  -0.31250000 -0.43750000  0.06250000       0.023
  -0.18750000 -0.43750000  0.06250000       0.023
  -0.31250000 -0.31250000  0.06250000       0.012
  -0.18750000 -0.31250000  0.06250000       0.023
  -0.18750000 -0.18750000  0.06250000       0.012
   0.18750000  0.18750000  0.18750000       0.004
   0.31250000  0.18750000  0.18750000       0.012
   0.43750000  0.18750000  0.18750000       0.012
  -0.43750000  0.18750000  0.18750000       0.012
  -0.31250000  0.18750000  0.18750000       0.012
  -0.18750000  0.18750000  0.18750000       0.012
   0.31250000  0.31250000  0.18750000       0.012
   0.43750000  0.31250000  0.18750000       0.023
  -0.43750000  0.31250000  0.18750000       0.023
  -0.31250000  0.31250000  0.18750000       0.023
  -0.18750000  0.31250000  0.18750000       0.023
   0.43750000  0.43750000  0.18750000       0.012
  -0.43750000  0.43750000  0.18750000       0.023
  -0.31250000  0.43750000  0.18750000       0.023
  -0.18750000  0.43750000  0.18750000       0.023
  -0.43750000 -0.43750000  0.18750000       0.012
  -0.31250000 -0.43750000  0.18750000       0.023
  -0.31250000 -0.31250000  0.18750000       0.012
   0.31250000  0.31250000  0.31250000       0.004
   0.43750000  0.31250000  0.31250000       0.012
  -0.43750000  0.31250000  0.31250000       0.012
  -0.31250000  0.31250000  0.31250000       0.012
   0.43750000  0.43750000  0.31250000       0.012
  -0.43750000  0.43750000  0.31250000       0.023
  -0.31250000  0.43750000  0.31250000       0.023
  -0.43750000 -0.43750000  0.31250000       0.012
   0.43750000  0.43750000  0.43750000       0.004
  -0.43750000  0.43750000  0.43750000       0.012
 
 position of ions in fractional coordinates (direct lattice) 
   0.00000000  0.00000000  0.00000000
 
 position of ions in cartesian coordinates  (Angst):
   0.00000000  0.00000000  0.00000000
 


--------------------------------------------------------------------------------------------------------


 k-point   1 :   0.0625 0.0625 0.0625  plane waves:     226
 k-point   2 :   0.1875 0.0625 0.0625  plane waves:     218
 k-point   3 :   0.3125 0.0625 0.0625  plane waves:     215
 k-point   4 :   0.4375 0.0625 0.0625  plane waves:     224
 k-point   5 :  -0.4375 0.0625 0.0625  plane waves:     222
 k-point   6 :  -0.3125 0.0625 0.0625  plane waves:     222
 k-point   7 :  -0.1875 0.0625 0.0625  plane waves:     218
 k-point   8 :  -0.0625 0.0625 0.0625  plane waves:     221
 k-point   9 :   0.1875 0.1875 0.0625  plane waves:     219
 k-point  10 :   0.3125 0.1875 0.0625  plane waves:     218
 k-point  11 :   0.4375 0.1875 0.0625  plane waves:     222
 k-point  12 :  -0.4375 0.1875 0.0625  plane waves:     223
 k-point  13 :  -0.3125 0.1875 0.0625  plane waves:     222
 k-point  14 :  -0.1875 0.1875 0.0625  plane waves:     219
 k-point  15 :  -0.0625 0.1875 0.0625  plane waves:     221
 k-point  16 :   0.3125 0.3125 0.0625  plane waves:     218
 k-point  17 :   0.4375 0.3125 0.0625  plane waves:     220
 k-point  18 :  -0.4375 0.3125 0.0625  plane waves:     221
 k-point  19 :  -0.3125 0.3125 0.0625  plane waves:     222
 k-point  20 :  -0.1875 0.3125 0.0625  plane waves:     219
 k-point  21 :  -0.0625 0.3125 0.0625  plane waves:     217
 k-point  22 :   0.4375 0.4375 0.0625  plane waves:     218
 k-point  23 :  -0.4375 0.4375 0.0625  plane waves:     220
 k-point  24 :  -0.3125 0.4375 0.0625  plane waves:     222
 k-point  25 :  -0.1875 0.4375 0.0625  plane waves:     224
 k-point  26 :  -0.0625 0.4375 0.0625  plane waves:     225
 k-point  27 :  -0.4375-0.4375 0.0625  plane waves:     222
 k-point  28 :  -0.3125-0.4375 0.0625  plane waves:     218
 k-point  29 :  -0.1875-0.4375 0.0625  plane waves:     222
 k-point  30 :  -0.3125-0.3125 0.0625  plane waves:     218
 k-point  31 :  -0.1875-0.3125 0.0625  plane waves:     219
 k-point  32 :  -0.1875-0.1875 0.0625  plane waves:     221
 k-point  33 :   0.1875 0.1875 0.1875  plane waves:     220
 k-point  34 :   0.3125 0.1875 0.1875  plane waves:     216
 k-point  35 :   0.4375 0.1875 0.1875  plane waves:     220
 k-point  36 :  -0.4375 0.1875 0.1875  plane waves:     221
 k-point  37 :  -0.3125 0.1875 0.1875  plane waves:     221
 k-point  38 :  -0.1875 0.1875 0.1875  plane waves:     221
 k-point  39 :   0.3125 0.3125 0.1875  plane waves:     222
 k-point  40 :   0.4375 0.3125 0.1875  plane waves:     218
 k-point  41 :  -0.4375 0.3125 0.1875  plane waves:     221
 k-point  42 :  -0.3125 0.3125 0.1875  plane waves:     222
 k-point  43 :  -0.1875 0.3125 0.1875  plane waves:     220
 k-point  44 :   0.4375 0.4375 0.1875  plane waves:     220
 k-point  45 :  -0.4375 0.4375 0.1875  plane waves:     220
 k-point  46 :  -0.3125 0.4375 0.1875  plane waves:     217
 k-point  47 :  -0.1875 0.4375 0.1875  plane waves:     218
 k-point  48 :  -0.4375-0.4375 0.1875  plane waves:     224
 k-point  49 :  -0.3125-0.4375 0.1875  plane waves:     220
 k-point  50 :  -0.3125-0.3125 0.1875  plane waves:     221
 k-point  51 :   0.3125 0.3125 0.3125  plane waves:     223
 k-point  52 :   0.4375 0.3125 0.3125  plane waves:     219
 k-point  53 :  -0.4375 0.3125 0.3125  plane waves:     224
 k-point  54 :  -0.3125 0.3125 0.3125  plane waves:     221
 k-point  55 :   0.4375 0.4375 0.3125  plane waves:     225
 k-point  56 :  -0.4375 0.4375 0.3125  plane waves:     222
 k-point  57 :  -0.3125 0.4375 0.3125  plane waves:     225
 k-point  58 :  -0.4375-0.4375 0.3125  plane waves:     221
 k-point  59 :   0.4375 0.4375 0.4375  plane waves:     225
 k-point  60 :  -0.4375 0.4375 0.4375  plane waves:     225

 maximum and minimum number of plane-waves per node :        43       26

 maximum number of plane-waves:       226
 maximum index in each direction: 
   IXMAX=    4   IYMAX=    4   IZMAX=    4
   IXMIN=   -4   IYMIN=   -4   IZMIN=   -4


 parallel 3D FFT for wavefunctions:
    minimum data exchange during FFTs selected (reduces bandwidth)
 parallel 3D FFT for charge:
    minimum data exchange during FFTs selected (reduces bandwidth)


 total amount of memory used by VASP MPI-rank0    31050. kBytes
=======================================================================

   base      :      30000. kBytes
   nonl-proj :        311. kBytes
   fftplans  :        112. kBytes
   grid      :        274. kBytes
   one-center:         31. kBytes
   wavefun   :        322. kBytes
 
     INWAV:  cpu time      0.0000: real time      0.0003
 Broyden mixing: mesh for mixing (old mesh)
   NGX =  9   NGY =  9   NGZ =  9
  (NGX  = 36   NGY  = 36   NGZ  = 36)
  gives a total of    729 points

 initial charge density was supplied:
 charge density of overlapping atoms calculated
 number of electron       9.0000000 magnetization       3.0000000
 keeping initial charge density in first step


--------------------------------------------------------------------------------------------------------


 Maximum index for augmentation-charges         1384 (set IRDMAX)


--------------------------------------------------------------------------------------------------------


 First call to EWALD:  gamma=   0.771
 Maximum number of real-space cells 3x 3x 3
 Maximum number of reciprocal cells 3x 3x 3

    FEWALD:  cpu time      0.0012: real time      0.0012


--------------------------------------- Iteration      1(   1)  ---------------------------------------


    POTLOK:  cpu time      0.0053: real time      0.0054
    SETDIJ:  cpu time      0.0049: real time      0.0049
     EDDAV:  cpu time      0.2758: real time      0.2776
       DOS:  cpu time      0.0013: real time      0.0013
    --------------------------------------------
      LOOP:  cpu time      0.2873: real time      0.2892

 eigenvalue-minimisations  :  2936
 total energy-change (2. order) : 0.2325386E+02  (-0.3556585E+03)
 number of electron       9.0000000 magnetization       3.0000000
 augmentation part        9.0000000 magnetization       3.0000000

 Free energy of the ion-electron system (eV)
  ---------------------------------------------------
  alpha Z        PSCENC =        34.87504433
  Ewald energy   TEWEN  =      -732.78775748
  -Hartree energ DENC   =      -162.09367925
  -exchange      EXHF   =         0.00000000
  -V(xc)+E(xc)   XCENC  =        17.46708086
  PAW double counting   =       719.99081943     -772.94345096
  entropy T*S    EENTRO =        -0.00109329
  eigenvalues    EBANDS =       105.38915886
  atomic energy  EATOM  =       813.35773410
  Solvation  Ediel_sol  =         0.00000000
  ---------------------------------------------------
  free energy    TOTEN  =        23.25385659 eV

  energy without entropy =       23.25494988  energy(sigma->0) =       23.25440323


--------------------------------------------------------------------------------------------------------




--------------------------------------- Iteration      1(   2)  ---------------------------------------


     EDDAV:  cpu time      0.2690: real time      0.2712
       DOS:  cpu time      0.0008: real time      0.0008
    --------------------------------------------
      LOOP:  cpu time      0.2698: real time      0.2720

 eigenvalue-minimisations  :  3064
 total energy-change (2. order) :-0.3022008E+02  (-0.2801999E+02)
 number of electron       9.0000000 magnetization       3.0000000
 augmentation part        9.0000000 magnetization       3.0000000

 Free energy of the ion-electron system (eV)
  ---------------------------------------------------
  alpha Z        PSCENC =        34.87504433
  Ewald energy   TEWEN  =      -732.78775748
  -Hartree energ DENC   =      -162.09367925
  -exchange      EXHF   =         0.00000000
  -V(xc)+E(xc)   XCENC  =        17.46708086
  PAW double counting   =       719.99081943     -772.94345096
  entropy T*S    EENTRO =        -0.00176504
  eigenvalues    EBANDS =        75.16975132
  atomic energy  EATOM  =       813.35773410
  Solvation  Ediel_sol  =         0.00000000
  ---------------------------------------------------
  free energy    TOTEN  =        -6.96622270 eV

  energy without entropy =       -6.96445766  energy(sigma->0) =       -6.96534018


--------------------------------------------------------------------------------------------------------




--------------------------------------- Iteration      1(   3)  ---------------------------------------


     EDDAV:  cpu time      0.2841: real time      0.2857
       DOS:  cpu time      0.0008: real time      0.0008
    --------------------------------------------
      LOOP:  cpu time      0.2850: real time      0.2865

 eigenvalue-minimisations  :  3376
 total energy-change (2. order) :-0.8394143E+00  (-0.8354565E+00)
 number of electron       9.0000000 magnetization       3.0000000
 augmentation part        9.0000000 magnetization       3.0000000

 Free energy of the ion-electron system (eV)
  ---------------------------------------------------
  alpha Z        PSCENC =        34.87504433
  Ewald energy   TEWEN  =      -732.78775748
  -Hartree energ DENC   =      -162.09367925
  -exchange      EXHF   =         0.00000000
  -V(xc)+E(xc)   XCENC  =        17.46708086
  PAW double counting   =       719.99081943     -772.94345096
  entropy T*S    EENTRO =        -0.00104388
  eigenvalues    EBANDS =        74.32961581
  atomic energy  EATOM  =       813.35773410
  Solvation  Ediel_sol  =         0.00000000
  ---------------------------------------------------
  free energy    TOTEN  =        -7.80563705 eV

  energy without entropy =       -7.80459317  energy(sigma->0) =       -7.80511511


--------------------------------------------------------------------------------------------------------




--------------------------------------- Iteration      1(   4)  ---------------------------------------


     EDDAV:  cpu time      0.2964: real time      0.2981
       DOS:  cpu time      0.0008: real time      0.0008
    --------------------------------------------
      LOOP:  cpu time      0.2973: real time      0.2989

 eigenvalue-minimisations  :  3432
 total energy-change (2. order) :-0.9021149E-02  (-0.9019309E-02)
 number of electron       9.0000000 magnetization       3.0000000
 augmentation part        9.0000000 magnetization       3.0000000

 Free energy of the ion-electron system (eV)
  ---------------------------------------------------
  alpha Z        PSCENC =        34.87504433
  Ewald energy   TEWEN  =      -732.78775748
  -Hartree energ DENC   =      -162.09367925
  -exchange      EXHF   =         0.00000000
  -V(xc)+E(xc)   XCENC  =        17.46708086
  PAW double counting   =       719.99081943     -772.94345096
  entropy T*S    EENTRO =        -0.00103642
  eigenvalues    EBANDS =        74.32058720
  atomic energy  EATOM  =       813.35773410
  Solvation  Ediel_sol  =         0.00000000
  ---------------------------------------------------
  free energy    TOTEN  =        -7.81465820 eV

  energy without entropy =       -7.81362178  energy(sigma->0) =       -7.81413999


--------------------------------------------------------------------------------------------------------




--------------------------------------- Iteration      1(   5)  ---------------------------------------


     EDDAV:  cpu time      0.3017: real time      0.3035
       DOS:  cpu time      0.0008: real time      0.0008
    CHARGE:  cpu time      0.0133: real time      0.0134
    MIXING:  cpu time      0.0002: real time      0.0002
    --------------------------------------------
      LOOP:  cpu time      0.3161: real time      0.3180

 eigenvalue-minimisations  :  3644
 total energy-change (2. order) :-0.2559044E-03  (-0.2559034E-03)
 number of electron       8.9999994 magnetization       1.5935827
 augmentation part        4.5660003 magnetization       1.1580135

 Broyden mixing:
  rms(total) = 0.10163E+01    rms(broyden)= 0.10163E+01
  rms(prec ) = 0.32029E+01
  weight for this iteration     100.00

 Free energy of the ion-electron system (eV)
  ---------------------------------------------------
  alpha Z        PSCENC =        34.87504433
  Ewald energy   TEWEN  =      -732.78775748
  -Hartree energ DENC   =      -162.09367925
  -exchange      EXHF   =         0.00000000
  -V(xc)+E(xc)   XCENC  =        17.46708086
  PAW double counting   =       719.99081943     -772.94345096
  entropy T*S    EENTRO =        -0.00103612
  eigenvalues    EBANDS =        74.32033100
  atomic energy  EATOM  =       813.35773410
  Solvation  Ediel_sol  =         0.00000000
  ---------------------------------------------------
  free energy    TOTEN  =        -7.81491410 eV

  energy without entropy =       -7.81387798  energy(sigma->0) =       -7.81439604


--------------------------------------------------------------------------------------------------------




--------------------------------------- Iteration      1(   6)  ---------------------------------------


    POTLOK:  cpu time      0.0036: real time      0.0038
    SETDIJ:  cpu time      0.0045: real time      0.0046
     EDDAV:  cpu time      0.3027: real time      0.3043
       DOS:  cpu time      0.0009: real time      0.0009
    CHARGE:  cpu time      0.0125: real time      0.0125
    MIXING:  cpu time      0.0002: real time      0.0002
    --------------------------------------------
      LOOP:  cpu time      0.3245: real time      0.3263

 eigenvalue-minimisations  :  3684
 total energy-change (2. order) : 0.5821784E+00  (-0.1433017E+01)
 number of electron       8.9999992 magnetization       1.6284374
 augmentation part        5.4288946 magnetization       1.4858184

 Broyden mixing:
  rms(total) = 0.55143E+00    rms(broyden)= 0.55141E+00
  rms(prec ) = 0.12620E+01
  weight for this iteration     100.00

 eigenvalues of (default mixing * dielectric matrix)
  average eigenvalue GAMMA=   0.7514
  0.7514

 Free energy of the ion-electron system (eV)
  ---------------------------------------------------
  alpha Z        PSCENC =        34.87504433
  Ewald energy   TEWEN  =      -732.78775748
  -Hartree energ DENC   =      -142.16724655
  -exchange      EXHF   =         0.00000000
  -V(xc)+E(xc)   XCENC  =        15.98036643
  PAW double counting   =       764.45484092     -811.79629218
  entropy T*S    EENTRO =        -0.00253553
  eigenvalues    EBANDS =        50.85311025
  atomic energy  EATOM  =       813.35773410
  Solvation  Ediel_sol  =         0.00000000
  ---------------------------------------------------
  free energy    TOTEN  =        -7.23273570 eV

  energy without entropy =       -7.23020017  energy(sigma->0) =       -7.23146794


--------------------------------------------------------------------------------------------------------




--------------------------------------- Iteration      1(   7)  ---------------------------------------


    POTLOK:  cpu time      0.0034: real time      0.0035
    SETDIJ:  cpu time      0.0041: real time      0.0042
     EDDAV:  cpu time      0.2969: real time      0.2984
       DOS:  cpu time      0.0009: real time      0.0009
    CHARGE:  cpu time      0.0124: real time      0.0124
    MIXING:  cpu time      0.0003: real time      0.0003
    --------------------------------------------
      LOOP:  cpu time      0.3179: real time      0.3197

 eigenvalue-minimisations  :  3596
 total energy-change (2. order) : 0.2792204E+00  (-0.2173732E+00)
 number of electron       8.9999993 magnetization       1.7432276
 augmentation part        5.1053405 magnetization       1.5568412

 Broyden mixing:
  rms(total) = 0.24982E+00    rms(broyden)= 0.24982E+00
  rms(prec ) = 0.40588E+00
  weight for this iteration     100.00

 eigenvalues of (default mixing * dielectric matrix)
  average eigenvalue GAMMA=   0.7036
  0.9022  0.5049

 Free energy of the ion-electron system (eV)
  ---------------------------------------------------
  alpha Z        PSCENC =        34.87504433
  Ewald energy   TEWEN  =      -732.78775748
  -Hartree energ DENC   =      -147.45578506
  -exchange      EXHF   =         0.00000000
  -V(xc)+E(xc)   XCENC  =        16.25001067
  PAW double counting   =       792.67052265     -843.64198198
  entropy T*S    EENTRO =        -0.00220777
  eigenvalues    EBANDS =        59.78090520
  atomic energy  EATOM  =       813.35773410
  Solvation  Ediel_sol  =         0.00000000
  ---------------------------------------------------
  free energy    TOTEN  =        -6.95351533 eV

  energy without entropy =       -6.95130756  energy(sigma->0) =       -6.95241145


--------------------------------------------------------------------------------------------------------




--------------------------------------- Iteration      1(   8)  ---------------------------------------


    POTLOK:  cpu time      0.0033: real time      0.0034
    SETDIJ:  cpu time      0.0041: real time      0.0042
     EDDAV:  cpu time      0.3128: real time      0.3146
       DOS:  cpu time      0.0009: real time      0.0009
    CHARGE:  cpu time      0.0122: real time      0.0122
    MIXING:  cpu time      0.0002: real time      0.0002
    --------------------------------------------
      LOOP:  cpu time      0.3335: real time      0.3355

 eigenvalue-minimisations  :  3840
 total energy-change (2. order) : 0.7136889E-02  (-0.1388552E-02)
 number of electron       8.9999993 magnetization       1.7632268
 augmentation part        5.1206364 magnetization       1.5741684

 Broyden mixing:
  rms(total) = 0.10556E+00    rms(broyden)= 0.10556E+00
  rms(prec ) = 0.22338E+00
  weight for this iteration     100.00

 eigenvalues of (default mixing * dielectric matrix)
  average eigenvalue GAMMA=   0.9915
  1.6751  0.7337  0.5658

 Free energy of the ion-electron system (eV)
  ---------------------------------------------------
  alpha Z        PSCENC =        34.87504433
  Ewald energy   TEWEN  =      -732.78775748
  -Hartree energ DENC   =      -146.24236081
  -exchange      EXHF   =         0.00000000
  -V(xc)+E(xc)   XCENC  =        16.25191143
  PAW double counting   =       811.53363136     -863.10141002
  entropy T*S    EENTRO =        -0.00221933
  eigenvalues    EBANDS =        59.16904796
  atomic energy  EATOM  =       813.35773410
  Solvation  Ediel_sol  =         0.00000000
  ---------------------------------------------------
  free energy    TOTEN  =        -6.94637844 eV

  energy without entropy =       -6.94415912  energy(sigma->0) =       -6.94526878


--------------------------------------------------------------------------------------------------------




--------------------------------------- Iteration      1(   9)  ---------------------------------------


    POTLOK:  cpu time      0.0033: real time      0.0034
    SETDIJ:  cpu time      0.0044: real time      0.0044
     EDDAV:  cpu time      0.3287: real time      0.3304
       DOS:  cpu time      0.0008: real time      0.0008
    CHARGE:  cpu time      0.0126: real time      0.0127
    MIXING:  cpu time      0.0003: real time      0.0003
    --------------------------------------------
      LOOP:  cpu time      0.3501: real time      0.3520

 eigenvalue-minimisations  :  4124
 total energy-change (2. order) : 0.6412459E-02  (-0.8855659E-03)
 number of electron       8.9999993 magnetization       1.7337742
 augmentation part        5.1389821 magnetization       1.5480467

 Broyden mixing:
  rms(total) = 0.29726E-01    rms(broyden)= 0.29726E-01
  rms(prec ) = 0.59498E-01
  weight for this iteration     100.00

 eigenvalues of (default mixing * dielectric matrix)
  average eigenvalue GAMMA=   1.0318
  2.1000  0.7006  0.7006  0.6259

 Free energy of the ion-electron system (eV)
  ---------------------------------------------------
  alpha Z        PSCENC =        34.87504433
  Ewald energy   TEWEN  =      -732.78775748
  -Hartree energ DENC   =      -144.86442829
  -exchange      EXHF   =         0.00000000
  -V(xc)+E(xc)   XCENC  =        16.20773779
  PAW double counting   =       835.36776939     -887.65533299
  entropy T*S    EENTRO =        -0.00227213
  eigenvalues    EBANDS =        58.56153930
  atomic energy  EATOM  =       813.35773410
  Solvation  Ediel_sol  =         0.00000000
  ---------------------------------------------------
  free energy    TOTEN  =        -6.93996598 eV

  energy without entropy =       -6.93769385  energy(sigma->0) =       -6.93882992


--------------------------------------------------------------------------------------------------------




--------------------------------------- Iteration      1(  10)  ---------------------------------------


    POTLOK:  cpu time      0.0034: real time      0.0036
    SETDIJ:  cpu time      0.0041: real time      0.0041
     EDDAV:  cpu time      0.3421: real time      0.3440
       DOS:  cpu time      0.0009: real time      0.0009
    CHARGE:  cpu time      0.0123: real time      0.0123
    MIXING:  cpu time      0.0002: real time      0.0002
    --------------------------------------------
      LOOP:  cpu time      0.3630: real time      0.3651

 eigenvalue-minimisations  :  4336
 total energy-change (2. order) : 0.4704259E-03  (-0.4898407E-04)
 number of electron       8.9999993 magnetization       1.7288637
 augmentation part        5.1434179 magnetization       1.5449762

 Broyden mixing:
  rms(total) = 0.54792E-02    rms(broyden)= 0.54788E-02
  rms(prec ) = 0.12323E-01
  weight for this iteration     100.00

 eigenvalues of (default mixing * dielectric matrix)
  average eigenvalue GAMMA=   1.2169
  2.5207  1.4439  0.8286  0.6456  0.6456

 Free energy of the ion-electron system (eV)
  ---------------------------------------------------
  alpha Z        PSCENC =        34.87504433
  Ewald energy   TEWEN  =      -732.78775748
  -Hartree energ DENC   =      -144.45080096
  -exchange      EXHF   =         0.00000000
  -V(xc)+E(xc)   XCENC  =        16.17721062
  PAW double counting   =       844.54211501     -897.11401567
  entropy T*S    EENTRO =        -0.00225681
  eigenvalues    EBANDS =        58.46323132
  atomic energy  EATOM  =       813.35773410
  Solvation  Ediel_sol  =         0.00000000
  ---------------------------------------------------
  free energy    TOTEN  =        -6.93949556 eV

  energy without entropy =       -6.93723874  energy(sigma->0) =       -6.93836715


--------------------------------------------------------------------------------------------------------




--------------------------------------- Iteration      1(  11)  ---------------------------------------


    POTLOK:  cpu time      0.0033: real time      0.0034
    SETDIJ:  cpu time      0.0041: real time      0.0041
     EDDAV:  cpu time      0.3275: real time      0.3291
       DOS:  cpu time      0.0008: real time      0.0009
    CHARGE:  cpu time      0.0128: real time      0.0128
    MIXING:  cpu time      0.0003: real time      0.0003
    --------------------------------------------
      LOOP:  cpu time      0.3488: real time      0.3507

 eigenvalue-minimisations  :  3992
 total energy-change (2. order) : 0.2663651E-04  (-0.1147782E-04)
 number of electron       8.9999993 magnetization       1.7288121
 augmentation part        5.1434973 magnetization       1.5435551

 Broyden mixing:
  rms(total) = 0.50067E-02    rms(broyden)= 0.50066E-02
  rms(prec ) = 0.51336E-02
  weight for this iteration     100.00

 eigenvalues of (default mixing * dielectric matrix)
  average eigenvalue GAMMA=   1.0896
  2.4068  1.4056  0.8130  0.6641  0.6641  0.5841

 Free energy of the ion-electron system (eV)
  ---------------------------------------------------
  alpha Z        PSCENC =        34.87504433
  Ewald energy   TEWEN  =      -732.78775748
  -Hartree energ DENC   =      -144.31807146
  -exchange      EXHF   =         0.00000000
  -V(xc)+E(xc)   XCENC  =        16.16502775
  PAW double counting   =       849.15244172     -901.84851004
  entropy T*S    EENTRO =        -0.00226367
  eigenvalues    EBANDS =        58.46688582
  atomic energy  EATOM  =       813.35773410
  Solvation  Ediel_sol  =         0.00000000
  ---------------------------------------------------
  free energy    TOTEN  =        -6.93946892 eV

  energy without entropy =       -6.93720525  energy(sigma->0) =       -6.93833709


--------------------------------------------------------------------------------------------------------




--------------------------------------- Iteration      1(  12)  ---------------------------------------


    POTLOK:  cpu time      0.0035: real time      0.0036
    SETDIJ:  cpu time      0.0045: real time      0.0045
     EDDAV:  cpu time      0.2805: real time      0.2820
       DOS:  cpu time      0.0008: real time      0.0009
    --------------------------------------------
      LOOP:  cpu time      0.2893: real time      0.2909

 eigenvalue-minimisations  :  3324
 total energy-change (2. order) :-0.1256960E-06  (-0.4219119E-06)
 number of electron       8.9999993 magnetization       1.7288121
 augmentation part        5.1434973 magnetization       1.5435551

 Free energy of the ion-electron system (eV)
  ---------------------------------------------------
  alpha Z        PSCENC =        34.87504433
  Ewald energy   TEWEN  =      -732.78775748
  -Hartree energ DENC   =      -144.32541679
  -exchange      EXHF   =         0.00000000
  -V(xc)+E(xc)   XCENC  =        16.16631612
  PAW double counting   =       849.11902627     -901.80124043
  entropy T*S    EENTRO =        -0.00226546
  eigenvalues    EBANDS =        58.45909028
  atomic energy  EATOM  =       813.35773410
  Solvation  Ediel_sol  =         0.00000000
  ---------------------------------------------------
  free energy    TOTEN  =        -6.93946905 eV

  energy without entropy =       -6.93720359  energy(sigma->0) =       -6.93833632


--------------------------------------------------------------------------------------------------------




 average (electrostatic) potential at core
  the test charge radii are     1.0452
  (the norm of the test charge is              1.0000)
       1 -79.7582
 
 
 
 E-fermi :   8.8593     XC(G=0): -12.7569     alpha+bet :-15.8366

 Fermi energy:         8.8592605681

 spin component 1

 k-point     1 :       0.0625    0.0625    0.0625
  band No.  band energies     occupation 
      1       0.6226      1.00000
      2       6.2032      1.00000
      3       6.2699      1.00000
      4       6.2699      1.00000
      5       7.0810      1.00000
      6       7.0810      1.00000
      7      30.4625      0.00000
      8      32.7984      0.00000
      9      34.0954      0.00000
     10      34.0954      0.00000
     11      37.6857      0.00000
     12      37.6857      0.00000

 k-point     2 :       0.1875    0.0625    0.0625
  band No.  band energies     occupation 
      1       1.3600      1.00000
      2       6.0303      1.00000
      3       6.4003      1.00000
      4       6.4064      1.00000
      5       6.9565      1.00000
      6       7.1615      1.00000
      7      27.3159      0.00000
      8      29.8549      0.00000
      9      33.2798      0.00000
     10      35.0547      0.00000
     11      36.8962      0.00000
     12      37.8791      0.00000

 k-point     3 :       0.3125    0.0625    0.0625
  band No.  band energies     occupation 
      1       2.9333      1.00000
      2       5.9506      1.00000
      3       6.3437      1.00000
      4       6.4030      1.00000
      5       7.1551      1.00000
      6       7.5172      1.00000
      7      21.4138      0.00000
      8      28.8396      0.00000
      9      32.2707      0.00000
     10      34.3823      0.00000
     11      35.7032      0.00000
     12      36.7944      0.00000

 k-point     4 :       0.4375    0.0625    0.0625
  band No.  band energies     occupation 
      1       4.0468      1.00000
      2       6.1467      1.00000
      3       6.2260      1.00000
      4       6.9095      1.00000
      5       7.6223      1.00000
      6       8.2604      1.00000
      7      16.2837      0.00000
      8      28.5169      0.00000
      9      30.9722      0.00000
     10      32.3363      0.00000
     11      34.8967      0.00000
     12      36.4266      0.00000

 k-point     5 :      -0.4375    0.0625    0.0625
  band No.  band energies     occupation 
      1       4.1768      1.00000
      2       6.0657      1.00000
      3       6.1817      1.00000
      4       7.3657      1.00000
      5       7.8553      1.00000
      6       9.1579      0.00000
      7      14.1586      0.00000
      8      28.8360      0.00000
      9      30.6467      0.00000
     10      30.8466      0.00000
     11      35.6508      0.00000
     12      35.7637      0.00000

 k-point     6 :      -0.3125    0.0625    0.0625
  band No.  band energies     occupation 
      1       3.8303      1.00000
      2       6.1795      1.00000
      3       6.3030      1.00000
      4       6.4332      1.00000
      5       7.6806      1.00000
      6       7.7681      1.00000
      7      17.8445      0.00000
      8      29.5514      0.00000
      9      30.1499      0.00000
     10      32.3147      0.00000
     11      35.6663      0.00000
     12      37.3117      0.00000

 k-point     7 :      -0.1875    0.0625    0.0625
  band No.  band energies     occupation 
      1       2.3630      1.00000
      2       5.9043      1.00000
      3       6.3980      1.00000
      4       6.4496      1.00000
      5       7.0944      1.00000
      6       7.3026      1.00000
      7      23.3394      0.00000
      8      30.4740      0.00000
      9      30.6877      0.00000
     10      34.9231      0.00000
     11      35.5560      0.00000
     12      39.4371      0.00000

 k-point     8 :      -0.0625    0.0625    0.0625
  band No.  band energies     occupation 
      1       0.9969      1.00000
      2       6.0861      1.00000
      3       6.3622      1.00000
      4       6.3655      1.00000
      5       6.9715      1.00000
      6       7.1373      1.00000
      7      29.1918      0.00000
      8      31.4791      0.00000
      9      32.0661      0.00000
     10      34.0891      0.00000
     11      37.6616      0.00000
     12      39.5068      0.00000

 k-point     9 :       0.1875    0.1875    0.0625
  band No.  band energies     occupation 
      1       1.7142      1.00000
      2       5.8586      1.00000
      3       6.5217      1.00000
      4       6.5512      1.00000
      5       6.8288      1.00000
      6       7.2422      1.00000
      7      27.5931      0.00000
      8      29.8704      0.00000
      9      30.1868      0.00000
     10      32.3351      0.00000
     11      36.5692      0.00000
     12      40.0339      0.00000

 k-point    10 :       0.3125    0.1875    0.0625
  band No.  band energies     occupation 
      1       2.9817      1.00000
      2       5.6103      1.00000
      3       6.3281      1.00000
      4       6.7596      1.00000
      5       7.0715      1.00000
      6       7.5809      1.00000
      7      23.8659      0.00000
      8      26.3661      0.00000
      9      30.0624      0.00000
     10      31.8578      0.00000
     11      35.7020      0.00000
     12      39.8986      0.00000

 k-point    11 :       0.4375    0.1875    0.0625
  band No.  band energies     occupation 
      1       4.2958      1.00000
      2       5.7144      1.00000
      3       6.0844      1.00000
      4       6.6181      1.00000
      5       7.6612      1.00000
      6       8.6782      1.00000
      7      18.3511      0.00000
      8      25.8508      0.00000
      9      27.5953      0.00000
     10      31.4264      0.00000
     11      37.8192      0.00000
     12      39.9655      0.00000

 k-point    12 :      -0.4375    0.1875    0.0625
  band No.  band energies     occupation 
      1       4.5939      1.00000
      2       5.7242      1.00000
      3       6.4608      1.00000
      4       6.5255      1.00000
      5       7.8279      1.00000
      6      10.8003      0.00000
      7      14.3784      0.00000
      8      25.3374      0.00000
      9      26.8136      0.00000
     10      31.3426      0.00000
     11      36.9468      0.00000
     12      40.5305      0.00000

 k-point    13 :      -0.3125    0.1875    0.0625
  band No.  band energies     occupation 
      1       4.5200      1.00000
      2       5.8495      1.00000
      3       6.1748      1.00000
      4       6.5234      1.00000
      5       7.5657      1.00000
      6       9.4642      0.00000
      7      16.7585      0.00000
      8      24.4680      0.00000
      9      28.4121      0.00000
     10      32.3658      0.00000
     11      36.3685      0.00000
     12      39.9254      0.00000

 k-point    14 :      -0.1875    0.1875    0.0625
  band No.  band energies     occupation 
      1       3.5264      1.00000
      2       5.6747      1.00000
      3       6.1866      1.00000
      4       6.6911      1.00000
      5       7.0189      1.00000
      6       8.0196      1.00000
      7      21.9594      0.00000
      8      24.5807      0.00000
      9      30.9139      0.00000
     10      34.2191      0.00000
     11      35.9187      0.00000
     12      38.5094      0.00000

 k-point    15 :      -0.0625    0.1875    0.0625
  band No.  band energies     occupation 
      1       2.0532      1.00000
      2       5.8587      1.00000
      3       6.4310      1.00000
      4       6.5510      1.00000
      5       6.8948      1.00000
      6       7.3263      1.00000
      7      25.5037      0.00000
      8      28.0444      0.00000
      9      32.3760      0.00000
     10      34.0625      0.00000
     11      36.8191      0.00000
     12      38.4109      0.00000

 k-point    16 :       0.3125    0.3125    0.0625
  band No.  band energies     occupation 
      1       3.6370      1.00000
      2       5.2606      1.00000
      3       6.6058      1.00000
      4       7.1189      1.00000
      5       7.4131      1.00000
      6       7.5436      1.00000
      7      24.4480      0.00000
      8      25.9751      0.00000
      9      26.2184      0.00000
     10      28.8457      0.00000
     11      32.4372      0.00000
     12      45.0831      0.00000

 k-point    17 :       0.4375    0.3125    0.0625
  band No.  band energies     occupation 
      1       4.3488      1.00000
      2       5.0876      1.00000
      3       6.5760      1.00000
      4       7.3085      1.00000
      5       7.7010      1.00000
      6       8.9322      0.01951
      7      21.2293      0.00000
      8      23.1116      0.00000
      9      23.8498      0.00000
     10      29.9782      0.00000
     11      33.7233      0.00000
     12      43.4099      0.00000

 k-point    18 :      -0.4375    0.3125    0.0625
  band No.  band energies     occupation 
      1       4.7920      1.00000
      2       5.1981      1.00000
      3       6.3335      1.00000
      4       7.0662      1.00000
      5       7.8870      1.00000
      6      11.8856      0.00000
      7      16.3866      0.00000
      8      20.9332      0.00000
      9      24.1012      0.00000
     10      30.3542      0.00000
     11      38.5580      0.00000
     12      41.5998      0.00000

 k-point    19 :      -0.3125    0.3125    0.0625
  band No.  band energies     occupation 
      1       5.1976      1.00000
      2       5.3368      1.00000
      3       5.9548      1.00000
      4       6.8948      1.00000
      5       7.6324      1.00000
      6      12.1494      0.00000
      7      16.2469      0.00000
      8      19.6651      0.00000
      9      25.7121      0.00000
     10      31.2152      0.00000
     11      39.5846      0.00000
     12      44.1716      0.00000

 k-point    20 :      -0.1875    0.3125    0.0625
  band No.  band energies     occupation 
      1       4.7653      1.00000
      2       5.6907      1.00000
      3       5.7987      1.00000
      4       6.7510      1.00000
      5       7.3192      1.00000
      6       9.5135      0.00000
      7      18.8763      0.00000
      8      21.7188      0.00000
      9      28.1745      0.00000
     10      32.8643      0.00000
     11      36.9902      0.00000
     12      41.1627      0.00000

 k-point    21 :      -0.0625    0.3125    0.0625
  band No.  band energies     occupation 
      1       3.6447      1.00000
      2       5.9179      1.00000
      3       6.1966      1.00000
      4       6.4566      1.00000
      5       7.3573      1.00000
      6       7.9119      1.00000
      7      19.7516      0.00000
      8      27.2653      0.00000
      9      30.6939      0.00000
     10      32.8065      0.00000
     11      36.5457      0.00000
     12      37.9171      0.00000

 k-point    22 :       0.4375    0.4375    0.0625
  band No.  band energies     occupation 
      1       4.1824      1.00000
      2       4.7794      1.00000
      3       7.6119      1.00000
      4       7.6348      1.00000
      5       7.9072      1.00000
      6       9.6551      0.00000
      7      19.8980      0.00000
      8      22.2549      0.00000
      9      23.3979      0.00000
     10      27.9635      0.00000
     11      31.2125      0.00000
     12      45.7674      0.00000

 k-point    23 :      -0.4375    0.4375    0.0625
  band No.  band energies     occupation 
      1       4.3185      1.00000
      2       4.7994      1.00000
      3       7.2926      1.00000
      4       7.5659      1.00000
      5       8.0304      1.00000
      6      12.0310      0.00000
      7      17.8208      0.00000
      8      19.9442      0.00000
      9      22.2829      0.00000
     10      29.3480      0.00000
     11      33.0931      0.00000
     12      45.6857      0.00000

 k-point    24 :      -0.3125    0.4375    0.0625
  band No.  band energies     occupation 
      1       4.7540      1.00000
      2       5.1197      1.00000
      3       6.4855      1.00000
      4       7.2060      1.00000
      5       7.8852      1.00000
      6      13.8230      0.00000
      7      15.8350      0.00000
      8      18.4857      0.00000
      9      23.6736      0.00000
     10      30.1895      0.00000
     11      38.4869      0.00000
     12      42.7740      0.00000

 k-point    25 :      -0.1875    0.4375    0.0625
  band No.  band energies     occupation 
      1       4.9198      1.00000
      2       5.4778      1.00000
      3       6.2142      1.00000
      4       6.6995      1.00000
      5       7.7509      1.00000
      6      11.9215      0.00000
      7      14.6579      0.00000
      8      22.3408      0.00000
      9      26.0521      0.00000
     10      31.2498      0.00000
     11      38.2807      0.00000
     12      42.5980      0.00000

 k-point    26 :      -0.0625    0.4375    0.0625
  band No.  band energies     occupation 
      1       4.2982      1.00000
      2       5.9765      1.00000
      3       6.2985      1.00000
      4       6.8039      1.00000
      5       7.7802      1.00000
      6       9.3384      0.00000
      7      15.0938      0.00000
      8      27.3019      0.00000
      9      28.9877      0.00000
     10      31.5392      0.00000
     11      35.9093      0.00000
     12      38.0504      0.00000

 k-point    27 :      -0.4375   -0.4375    0.0625
  band No.  band energies     occupation 
      1       4.1373      1.00000
      2       4.6697      1.00000
      3       7.7012      1.00000
      4       7.8663      1.00000
      5       8.0404      1.00000
      6      11.1731      0.00000
      7      17.6918      0.00000
      8      21.7298      0.00000
      9      22.8299      0.00000
     10      27.8135      0.00000
     11      31.0471      0.00000
     12      45.7614      0.00000

 k-point    28 :      -0.3125   -0.4375    0.0625
  band No.  band energies     occupation 
      1       4.3768      1.00000
      2       4.8993      1.00000
      3       7.0062      1.00000
      4       7.5123      1.00000
      5       7.9013      1.00000
      6      10.4528      0.00000
      7      20.0111      0.00000
      8      20.5197      0.00000
      9      22.7830      0.00000
     10      29.5494      0.00000
     11      33.2847      0.00000
     12      44.9358      0.00000

 k-point    29 :      -0.1875   -0.4375    0.0625
  band No.  band energies     occupation 
      1       4.6897      1.00000
      2       5.4137      1.00000
      3       6.1520      1.00000
      4       6.8434      1.00000
      5       7.8320      1.00000
      6      10.0447      0.00000
      7      17.2205      0.00000
      8      23.9469      0.00000
      9      25.0141      0.00000
     10      30.7292      0.00000
     11      38.4991      0.00000
     12      40.5290      0.00000

 k-point    30 :      -0.3125   -0.3125    0.0625
  band No.  band energies     occupation 
      1       4.1280      1.00000
      2       4.9852      1.00000
      3       7.1487      1.00000
      4       7.4116      1.00000
      5       7.7196      1.00000
      6       8.1913      1.00000
      7      22.7969      0.00000
      8      23.3378      0.00000
      9      24.4757      0.00000
     10      28.2844      0.00000
     11      31.6199      0.00000
     12      45.6873      0.00000

 k-point    31 :      -0.1875   -0.3125    0.0625
  band No.  band energies     occupation 
      1       3.8914      1.00000
      2       5.3380      1.00000
      3       6.2812      1.00000
      4       7.0246      1.00000
      5       7.4171      1.00000
      6       8.0098      1.00000
      7      22.4293      0.00000
      8      24.8428      0.00000
      9      26.7451      0.00000
     10      30.6948      0.00000
     11      34.5011      0.00000
     12      41.7282      0.00000

 k-point    32 :      -0.1875   -0.1875    0.0625
  band No.  band energies     occupation 
      1       2.6818      1.00000
      2       5.5671      1.00000
      3       6.5084      1.00000
      4       6.8125      1.00000
      5       6.9845      1.00000
      6       7.3825      1.00000
      7      25.9732      0.00000
      8      27.8035      0.00000
      9      28.8583      0.00000
     10      30.0977      0.00000
     11      33.9785      0.00000
     12      42.5256      0.00000

 k-point    33 :       0.1875    0.1875    0.1875
  band No.  band energies     occupation 
      1       1.7067      1.00000
      2       6.0107      1.00000
      3       6.4040      1.00000
      4       6.4040      1.00000
      5       7.0934      1.00000
      6       7.0934      1.00000
      7      25.2334      0.00000
      8      31.4965      0.00000
      9      32.9184      0.00000
     10      32.9184      0.00000
     11      38.3602      0.00000
     12      38.7569      0.00000

 k-point    34 :       0.3125    0.1875    0.1875
  band No.  band energies     occupation 
      1       2.6921      1.00000
      2       5.8070      1.00000
      3       6.3542      1.00000
      4       6.5930      1.00000
      5       6.8651      1.00000
      6       7.6032      1.00000
      7      23.6155      0.00000
      8      26.2025      0.00000
      9      33.6271      0.00000
     10      35.3727      0.00000
     11      35.4763      0.00000
     12      36.8986      0.00000

 k-point    35 :       0.4375    0.1875    0.1875
  band No.  band energies     occupation 
      1       4.1855      1.00000
      2       5.7183      1.00000
      3       6.0467      1.00000
      4       6.6236      1.00000
      5       7.0936      1.00000
      6       8.6199      1.00000
      7      20.2947      0.00000
      8      23.0100      0.00000
      9      31.7146      0.00000
     10      31.8708      0.00000
     11      37.3474      0.00000
     12      38.6567      0.00000

 k-point    36 :      -0.4375    0.1875    0.1875
  band No.  band energies     occupation 
      1       4.7182      1.00000
      2       5.7202      1.00000
      3       6.3031      1.00000
      4       6.5319      1.00000
      5       7.6177      1.00000
      6      10.5530      0.00000
      7      15.4928      0.00000
      8      23.2610      0.00000
      9      28.9849      0.00000
     10      30.1264      0.00000
     11      38.9004      0.00000
     12      39.2084      0.00000

 k-point    37 :      -0.3125    0.1875    0.1875
  band No.  band energies     occupation 
      1       4.6342      1.00000
      2       5.6063      1.00000
      3       6.3248      1.00000
      4       6.5988      1.00000
      5       7.8844      1.00000
      6      10.4256      0.00000
      7      15.4615      0.00000
      8      24.5748      0.00000
      9      27.2409      0.00000
     10      29.5654      0.00000
     11      40.0372      0.00000
     12      40.0614      0.00000

 k-point    38 :      -0.1875    0.1875    0.1875
  band No.  band energies     occupation 
      1       4.0553      1.00000
      2       5.4634      1.00000
      3       6.1928      1.00000
      4       6.7620      1.00000
      5       7.7295      1.00000
      6       8.1290      1.00000
      7      20.2553      0.00000
      8      26.7089      0.00000
      9      26.8657      0.00000
     10      29.8156      0.00000
     11      36.8974      0.00000
     12      41.3249      0.00000

 k-point    39 :       0.3125    0.3125    0.1875
  band No.  band energies     occupation 
      1       3.2263      1.00000
      2       5.7112      1.00000
      3       6.2721      1.00000
      4       6.5696      1.00000
      5       7.4118      1.00000
      6       7.5285      1.00000
      7      21.6781      0.00000
      8      28.6380      0.00000
      9      29.1352      0.00000
     10      31.7372      0.00000
     11      37.5194      0.00000
     12      39.0363      0.00000

 k-point    40 :       0.4375    0.3125    0.1875
  band No.  band energies     occupation 
      1       4.3242      1.00000
      2       5.4894      1.00000
      3       5.9897      1.00000
      4       6.9077      1.00000
      5       7.3260      1.00000
      6       8.6814      1.00000
      7      20.5424      0.00000
      8      23.2022      0.00000
      9      27.3368      0.00000
     10      33.3422      0.00000
     11      36.1402      0.00000
     12      39.2767      0.00000

 k-point    41 :      -0.4375    0.3125    0.1875
  band No.  band energies     occupation 
      1       5.0990      1.00000
      2       5.4742      1.00000
      3       5.7340      1.00000
      4       6.9550      1.00000
      5       7.6032      1.00000
      6      10.8830      0.00000
      7      17.7175      0.00000
      8      20.7299      0.00000
      9      24.7024      0.00000
     10      34.1338      0.00000
     11      36.3816      0.00000
     12      41.1578      0.00000

 k-point    42 :      -0.3125    0.3125    0.1875
  band No.  band energies     occupation 
      1       5.0848      1.00000
      2       5.2940      1.00000
      3       6.0351      1.00000
      4       6.9133      1.00000
      5       7.8363      1.00000
      6      12.7894      0.00000
      7      15.0159      0.00000
      8      21.6894      0.00000
      9      22.9543      0.00000
     10      33.0398      0.00000
     11      37.6018      0.00000
     12      42.4147      0.00000

 k-point    43 :      -0.1875    0.3125    0.1875
  band No.  band energies     occupation 
      1       4.7218      1.00000
      2       5.2880      1.00000
      3       6.0486      1.00000
      4       7.1543      1.00000
      5       7.6304      1.00000
      6       9.8362      0.00000
      7      19.3853      0.00000
      8      22.0788      0.00000
      9      23.9107      0.00000
     10      32.6441      0.00000
     11      36.1198      0.00000
     12      40.1189      0.00000

 k-point    44 :       0.4375    0.4375    0.1875
  band No.  band energies     occupation 
      1       4.4890      1.00000
      2       5.2036      1.00000
      3       6.4027      1.00000
      4       7.0022      1.00000
      5       7.8726      1.00000
      6       9.3349      0.00000
      7      19.0900      0.00000
      8      23.4933      0.00000
      9      25.4447      0.00000
     10      29.1181      0.00000
     11      36.1631      0.00000
     12      43.4105      0.00000

 k-point    45 :      -0.4375    0.4375    0.1875
  band No.  band energies     occupation 
      1       4.7038      1.00000
      2       5.1348      1.00000
[...]
      5       9.8728      0.00000
      6      13.2920      0.00000
      7      18.0346      0.00000
      8      18.9177      0.00000
      9      24.1468      0.00000
     10      28.9476      0.00000
     11      35.8042      0.00000
     12      46.1094      0.00000

 k-point    49 :      -0.3125   -0.4375    0.1875
  band No.  band energies     occupation 
      1       5.9554      1.00000
      2       6.4032      1.00000
      3       7.9756      1.00000
      4       9.3444      0.00000
      5       9.9520      0.00000
      6      13.8617      0.00000
      7      18.3860      0.00000
      8      19.0024      0.00000
      9      21.3520      0.00000
     10      32.1229      0.00000
     11      36.2978      0.00000
     12      42.5438      0.00000

 k-point    50 :      -0.3125   -0.3125    0.1875
  band No.  band energies     occupation 
      1       5.7222      1.00000
      2       6.3543      1.00000
      3       8.1165      1.00000
      4       9.2124      0.00000
      5       9.9294      0.00000
      6      11.9298      0.00000
      7      18.6538      0.00000
      8      20.9662      0.00000
      9      24.6843      0.00000
     10      29.0642      0.00000
     11      36.0139      0.00000
     12      45.0029      0.00000

 k-point    51 :       0.3125    0.3125    0.3125
  band No.  band energies     occupation 
      1       3.5702      1.00000
      2       7.4083      1.00000
      3       8.0904      1.00000
      4       8.0904      1.00000
      5       9.4179      0.00000
      6       9.4179      0.00000
      7      20.0027      0.00000
      8      30.1716      0.00000
      9      32.4735      0.00000
     10      32.4735      0.00000
     11      36.5595      0.00000
     12      36.5595      0.00000

 k-point    52 :       0.4375    0.3125    0.3125
  band No.  band energies     occupation 
      1       4.5702      1.00000
      2       7.2852      1.00000
      3       7.8341      1.00000
      4       8.2398      1.00000
      5       9.2840      0.00000
      6      10.2461      0.00000
      7      18.6931      0.00000
      8      25.9950      0.00000
      9      31.2927      0.00000
     10      32.4340      0.00000
     11      36.8033      0.00000
     12      37.2293      0.00000

 k-point    53 :      -0.4375    0.3125    0.3125
  band No.  band energies     occupation 
      1       5.8759      1.00000
      2       7.0830      1.00000
      3       7.2755      1.00000
      4       8.6797      1.00000
      5       9.2908      0.00000
      6      11.8453      0.00000
      7      18.0118      0.00000
      8      20.9778      0.00000
      9      28.9804      0.00000
     10      30.2069      0.00000
     11      40.1227      0.00000
     12      40.7816      0.00000

 k-point    54 :      -0.3125    0.3125    0.3125
  band No.  band energies     occupation 
      1       6.3562      1.00000
      2       6.4769      1.00000
      3       7.6070      1.00000
      4       9.0172      0.00000
      5       9.6295      0.00000
      6      14.3486      0.00000
      7      15.6804      0.00000
      8      19.5132      0.00000
      9      26.2291      0.00000
     10      29.3906      0.00000
     11      41.8069      0.00000
     12      43.1553      0.00000

 k-point    55 :       0.4375    0.4375    0.3125
  band No.  band energies     occupation 
      1       5.0067      1.00000
      2       7.2798      1.00000
      3       7.8202      1.00000
      4       8.2236      1.00000
      5       9.8499      0.00000
      6      10.2572      0.00000
      7      17.1795      0.00000
      8      27.6695      0.00000
      9      28.8282      0.00000
     10      30.5178      0.00000
     11      38.1322      0.00000
     12      38.7458      0.00000

 k-point    56 :      -0.4375    0.4375    0.3125
  band No.  band energies     occupation 
      1       5.8763      1.00000
      2       6.9225      1.00000
      3       7.5062      1.00000
      4       8.5932      1.00000
      5       9.6968      0.00000
      6      11.9837      0.00000
      7      16.3961      0.00000
      8      23.7577      0.00000
      9      25.3927      0.00000
     10      32.9266      0.00000
     11      36.7662      0.00000
     12      43.2119      0.00000

 k-point    57 :      -0.3125    0.4375    0.3125
  band No.  band energies     occupation 
      1       6.4326      1.00000
      2       6.6138      1.00000
      3       7.3296      1.00000
      4       9.0050      0.00002
      5       9.7666      0.00000
      6      14.7114      0.00000
      7      15.9880      0.00000
      8      19.6548      0.00000
      9      22.9238      0.00000
     10      33.1968      0.00000
     11      39.0000      0.00000
     12      41.9187      0.00000

 k-point    58 :      -0.4375   -0.4375    0.3125
  band No.  band energies     occupation 
      1       6.1108      1.00000
      2       6.6522      1.00000
      3       7.6457      1.00000
      4       8.7460      0.99932
      5       9.7943      0.00000
      6      13.0949      0.00000
      7      15.5453      0.00000
      8      21.9225      0.00000
      9      26.6712      0.00000
     10      29.4625      0.00000
     11      41.3668      0.00000
     12      41.8118      0.00000

 k-point    59 :       0.4375    0.4375    0.4375
  band No.  band energies     occupation 
      1       4.9275      1.00000
      2       7.9398      1.00000
      3       7.9398      1.00000
      4       8.2130      1.00000
      5       9.7968      0.00000
      6       9.7968      0.00000
      7      15.8090      0.00000
      8      29.3145      0.00000
      9      32.0986      0.00000
     10      32.0986      0.00000
     11      34.9229      0.00000
     12      34.9229      0.00000

 k-point    60 :      -0.4375    0.4375    0.4375
  band No.  band energies     occupation 
      1       5.4089      1.00000
      2       7.4970      1.00000
      3       7.9526      1.00000
      4       8.1411      1.00000
      5       9.7708      0.00000
      6      11.1086      0.00000
      7      15.2211      0.00000
      8      26.4415      0.00000
      9      29.9848      0.00000
     10      30.2319      0.00000
     11      37.3672      0.00000
     12      37.8541      0.00000


--------------------------------------------------------------------------------------------------------


 soft charge-density along one line, spin component           1
         0         1         2         3         4         5         6         7         8         9
 total charge-density along one line
 
 soft charge-density along one line, spin component           2
         0         1         2         3         4         5         6         7         8         9
 total charge-density along one line
 
 pseudopotential strength for first ion, spin component:           1
 -1.636  -0.000  -0.000  -0.000   0.000  -2.232  -0.000  -0.000
 -0.000  -1.636   0.000  -0.000  -0.000  -0.000  -2.232   0.000
 -0.000   0.000  -1.719   0.000  -0.000  -0.000   0.000  -2.312
 -0.000  -0.000   0.000  -1.636   0.000  -0.000  -0.000   0.000
  0.000  -0.000  -0.000   0.000  -1.719   0.000  -0.000  -0.000
 -2.232  -0.000  -0.000  -0.000   0.000  -2.771  -0.000  -0.000
 -0.000  -2.232   0.000  -0.000  -0.000  -0.000  -2.771   0.000
 -0.000   0.000  -2.312   0.000  -0.000  -0.000   0.000  -2.848
 -0.000  -0.000   0.000  -2.232   0.000  -0.000  -0.000   0.000
  0.000  -0.000  -0.000   0.000  -2.312   0.000  -0.000  -0.000
 -0.000  -0.000   0.000  -0.000  -0.000  -0.000  -0.000   0.000
 -0.000  -0.000   0.000  -0.000  -0.000  -0.000  -0.000   0.000
  0.000   0.000  -0.000   0.000  -0.000   0.000   0.000  -0.000
 -0.000   0.000   0.000   0.000  -0.000  -0.000   0.000   0.000
  0.000   0.000  -0.000   0.000   0.000   0.000   0.000  -0.000
  0.000   0.000  -0.000  -0.000  -0.000   0.000   0.000  -0.000
 -0.000   0.000   0.000   0.000  -0.000  -0.000   0.000   0.000
  0.000  -0.000  -0.000   0.000   0.000   0.000  -0.000  -0.000
 pseudopotential strength for first ion, spin component:           2
 -0.275   0.000  -0.000   0.000   0.000  -0.929   0.000  -0.000
  0.000  -0.275   0.000   0.000  -0.000   0.000  -0.929   0.000
 -0.000   0.000  -0.202   0.000  -0.000  -0.000   0.000  -0.858
  0.000   0.000   0.000  -0.275   0.000   0.000   0.000   0.000
  0.000  -0.000  -0.000   0.000  -0.202   0.000  -0.000  -0.000
 -0.929   0.000  -0.000   0.000   0.000  -1.524   0.000  -0.000
  0.000  -0.929   0.000   0.000  -0.000   0.000  -1.524   0.000
 -0.000   0.000  -0.858   0.000  -0.000  -0.000   0.000  -1.455
  0.000   0.000   0.000  -0.929   0.000   0.000   0.000   0.000
  0.000  -0.000  -0.000   0.000  -0.858   0.000  -0.000  -0.000
 -0.000  -0.000   0.000  -0.000  -0.000  -0.000  -0.000   0.000
 -0.000  -0.000   0.000  -0.000  -0.000  -0.000  -0.000   0.000
  0.000   0.000  -0.000   0.000  -0.000   0.000   0.000  -0.000
 -0.000   0.000   0.000   0.000   0.000   0.000   0.000   0.000
  0.000   0.000  -0.000   0.000   0.000   0.000   0.000  -0.000
  0.000   0.000  -0.000   0.000  -0.000   0.000   0.000  -0.000
 -0.000   0.000   0.000   0.000   0.000   0.000   0.000   0.000
  0.000   0.000  -0.000   0.000   0.000   0.000   0.000  -0.000
 total augmentation occupancy for first ion, spin component:           1
  2.725  -0.000   0.000   0.000   0.000  -1.263  -0.000   0.000   0.000  -0.000   0.000  -0.000   0.000   0.000   0.000   0.000
 -0.000   2.725  -0.000   0.000   0.000   0.000  -1.263   0.000   0.000  -0.000   0.000   0.000   0.000   0.000   0.000   0.000
 -0.000  -0.000   3.013  -0.000   0.000   0.000  -0.000  -1.439   0.000   0.000   0.000   0.000   0.000   0.000   0.000   0.000
  0.000   0.000  -0.000   2.725  -0.000  -0.000   0.000   0.000  -1.263  -0.000  -0.000  -0.000   0.000   0.000   0.000   0.000
 -0.000   0.000   0.000  -0.000   3.013  -0.000  -0.000   0.000  -0.000  -1.439   0.000   0.000   0.000   0.000   0.000   0.000
 -1.263   0.000   0.000   0.000  -0.000   1.376  -0.000   0.000   0.000   0.000   0.000   0.000   0.000   0.000   0.000   0.000
  0.000  -1.263   0.000   0.000  -0.000  -0.000   1.376   0.000   0.000   0.000   0.000   0.000   0.000   0.000   0.000   0.000
  0.000  -0.000  -1.439   0.000   0.000  -0.000  -0.000   1.355  -0.000   0.000   0.000   0.000   0.000   0.000   0.000   0.000
  0.000  -0.000  -0.000  -1.263  -0.000   0.000   0.000  -0.000   1.376   0.000   0.000   0.000   0.000   0.000   0.000   0.000
  0.000  -0.000   0.000   0.000  -1.439   0.000   0.000  -0.000   0.000   1.355  -0.000   0.000   0.000   0.000   0.000   0.000
  0.000   0.000   0.000   0.000   0.000   0.000  -0.000  -0.000  -0.000  -0.000   2.009  -0.213   0.000   0.000   0.000   0.000
  0.000   0.000  -0.000  -0.000   0.000   0.000  -0.000   0.000  -0.000   0.000  -0.213   0.031   0.000   0.000   0.000   0.000
  0.000   0.000   0.000   0.000   0.000   0.000   0.000   0.000   0.000   0.000   0.000   0.000   0.260   0.000  -0.000  -0.024
  0.000   0.000   0.000   0.000   0.000   0.000   0.000   0.000   0.000   0.000   0.000   0.000   0.000   0.260   0.000   0.000
  0.000   0.000   0.000   0.000   0.000   0.000   0.000   0.000   0.000   0.000   0.000   0.000   0.000  -0.000   0.260  -0.000
  0.000   0.000   0.000   0.000   0.000   0.000   0.000   0.000   0.000   0.000   0.000   0.000  -0.024   0.000  -0.000   0.003
  0.000   0.000   0.000   0.000   0.000   0.000   0.000   0.000   0.000   0.000   0.000   0.000   0.000  -0.024  -0.000   0.000
  0.000   0.000   0.000   0.000   0.000   0.000   0.000   0.000   0.000   0.000   0.000   0.000  -0.000   0.000  -0.024   0.000
 total augmentation occupancy for first ion, spin component:           2
  2.014  -0.000   0.000   0.000   0.000  -0.966   0.000   0.000  -0.000  -0.000   0.000   0.000   0.000   0.000   0.000   0.000
  0.000   2.014   0.000  -0.000   0.000   0.000  -0.966   0.000   0.000  -0.000   0.000  -0.000   0.000   0.000   0.000   0.000
  0.000   0.000   2.218   0.000   0.000  -0.000  -0.000  -1.020   0.000   0.000   0.000   0.000   0.000   0.000   0.000   0.000
  0.000   0.000   0.000   2.014  -0.000  -0.000   0.000  -0.000  -0.966  -0.000   0.000  -0.000   0.000   0.000   0.000   0.000
  0.000  -0.000   0.000  -0.000   2.218   0.000  -0.000   0.000   0.000  -1.020   0.000   0.000   0.000   0.000   0.000   0.000
 -0.966  -0.000  -0.000  -0.000   0.000   0.270   0.000   0.000  -0.000   0.000   0.000   0.000   0.000   0.000   0.000   0.000
  0.000  -0.966  -0.000  -0.000   0.000   0.000   0.270   0.000   0.000   0.000   0.000   0.000   0.000   0.000   0.000   0.000
  0.000  -0.000  -1.020  -0.000   0.000  -0.000   0.000   0.303   0.000  -0.000   0.000  -0.000   0.000   0.000   0.000   0.000
  0.000   0.000   0.000  -0.966   0.000   0.000  -0.000  -0.000   0.270   0.000   0.000   0.000   0.000   0.000   0.000   0.000
 -0.000  -0.000   0.000  -0.000  -1.020  -0.000  -0.000   0.000  -0.000   0.303   0.000   0.000   0.000   0.000   0.000   0.000
  0.000   0.000   0.000   0.000  -0.000   0.000   0.000   0.000   0.000   0.000  -0.277   0.085   0.000   0.000   0.000   0.000
  0.000  -0.000   0.000  -0.000  -0.000   0.000   0.000   0.000   0.000   0.000   0.085  -0.013   0.000   0.000   0.000   0.000
  0.000   0.000   0.000   0.000   0.000   0.000   0.000   0.000   0.000   0.000   0.000   0.000  -0.033  -0.000   0.000   0.005
  0.000   0.000   0.000   0.000   0.000   0.000   0.000   0.000   0.000   0.000   0.000   0.000  -0.000  -0.033  -0.000   0.000
  0.000   0.000   0.000   0.000   0.000   0.000   0.000   0.000   0.000   0.000   0.000   0.000  -0.000   0.000  -0.033  -0.000
  0.000   0.000   0.000   0.000   0.000   0.000   0.000   0.000   0.000   0.000   0.000   0.000   0.005   0.000   0.000  -0.001
  0.000   0.000   0.000   0.000   0.000   0.000   0.000   0.000   0.000   0.000   0.000   0.000   0.000   0.005   0.000   0.000
  0.000   0.000   0.000   0.000   0.000   0.000   0.000   0.000   0.000   0.000   0.000   0.000   0.000  -0.000   0.005   0.000


------------------------ aborting loop because EDIFF is reached ----------------------------------------





 total charge

# of ion       s       p       d       tot
------------------------------------------
    1        0.448   0.435   7.188   8.071



 magnetization (x)

# of ion       s       p       d       tot
------------------------------------------
    1       -0.011  -0.049   1.828   1.769
 
    CHARGE:  cpu time      0.0122: real time      0.0122
    FORLOC:  cpu time      0.0001: real time      0.0001
    FORNL :  cpu time      0.0066: real time      0.0066
    STRESS:  cpu time      0.0245: real time      0.0246
    FORCOR:  cpu time      0.0031: real time      0.0031
    FORHAR:  cpu time      0.0003: real time      0.0003
    MIXING:  cpu time      0.0002: real time      0.0002
    OFIELD:  cpu time      0.0000: real time      0.0000

  FORCE on cell =-STRESS in cart. coord.  units (eV):
  Direction    XX          YY          ZZ          XY          YZ          ZX
  --------------------------------------------------------------------------------------
  Alpha Z    34.87504    34.87504    34.87504
  Ewald    -244.26259  -244.26259  -244.26259     0.00000    -0.00000     0.00000
  Hartree    48.10814    48.10814    48.10814     0.00000     0.00000     0.00000
  E(xc)     -45.91124   -45.91124   -45.91124    -0.00000    -0.00000    -0.00000
  Local     -18.52852   -18.52852   -18.52852     0.00003     0.00003     0.00003
  n-local    -6.22415    -5.10103    -7.89740     1.71198    -1.53759    -0.02173
  augment   156.08807   156.08807   156.08807    -0.00003    -0.00003    -0.00003
  Kinetic    73.80766    73.17130    76.94530    -0.75260     1.03912    -0.11040
  Fock        0.00000     0.00000     0.00000     0.00000     0.00000     0.00000
  -------------------------------------------------------------------------------------
  Total      -1.39721    -1.39721    -1.39721    -0.00000    -0.00000    -0.00000
  in kB    -184.31267  -184.31267  -184.31267    -0.00000    -0.00000    -0.00000
  external pressure =     -184.31 kB  Pullay stress =        0.00 kB


 VOLUME and BASIS-vectors are now :
 -----------------------------------------------------------------------------
  energy-cutoff  :      400.00
  volume of cell :       12.15
      direct lattice vectors                 reciprocal lattice vectors
     0.000000000  1.824438259  1.824438259    -0.274056958  0.274056958  0.274056958
     1.824438259  0.000000000  1.824438259     0.274056958 -0.274056958  0.274056958
     1.824438259  1.824438259  0.000000000     0.274056958  0.274056958 -0.274056958

  length of vectors
     2.580145330  2.580145330  2.580145330     0.474680576  0.474680576  0.474680576


 FORCES acting on ions
    electron-ion (+dipol)            ewald-force                    non-local-force                 convergence-correction
 -----------------------------------------------------------------------------------------------
   -.251E-15 -.215E-14 -.396E-15   -.739E-16 0.330E-15 -.185E-14   0.165E-23 0.000E+00 0.620E-24   -.773E-14 -.236E-13 -.188E-13
 -----------------------------------------------------------------------------------------------
   -.251E-15 -.215E-14 -.396E-15   -.739E-16 0.330E-15 -.185E-14   0.165E-23 0.000E+00 0.620E-24   -.773E-14 -.236E-13 -.188E-13
 
 
 POSITION                                       TOTAL-FORCE (eV/Angst)
 -----------------------------------------------------------------------------------
      0.00000      0.00000      0.00000         0.000000     -0.000000      0.000000
 -----------------------------------------------------------------------------------
    total drift:                               -0.000000     -0.000000     -0.000000


--------------------------------------------------------------------------------------------------------



  FREE ENERGIE OF THE ION-ELECTRON SYSTEM (eV)
  ---------------------------------------------------
  free  energy   TOTEN  =        -6.93946905 eV

  energy  without entropy=       -6.93720359  energy(sigma->0) =       -6.93833632
 


--------------------------------------------------------------------------------------------------------


    POTLOK:  cpu time      0.0076: real time      0.0077


--------------------------------------------------------------------------------------------------------




--------------------------------------------------------------------------------------------------------


  
 reached required accuracy - stopping structural energy minimisation
 writing wavefunctions
     LOOP+:  cpu time      3.9299: real time      4.0366
    4ORBIT:  cpu time      0.0000: real time      0.0000



 total charge

# of ion       s       p       d       tot
------------------------------------------
    1        0.448   0.435   7.188   8.071



 magnetization (x)

# of ion       s       p       d       tot
------------------------------------------
    1       -0.011  -0.049   1.828   1.769
 

 total amount of memory used by VASP MPI-rank0    31050. kBytes
=======================================================================

   base      :      30000. kBytes
   nonl-proj :        311. kBytes
   fftplans  :        112. kBytes
   grid      :        274. kBytes
   one-center:         31. kBytes
   wavefun   :        322. kBytes
 
  
  
 General timing and accounting informations for this job:
 ========================================================
  
                  Total CPU time used (sec):        4.856
                            User time (sec):        4.301
                          System time (sec):        0.555
                         Elapsed time (sec):        6.470
  
                   Maximum memory used (kb):      237752.
                   Average memory used (kb):          N/A
  
                          Minor page faults:        19574
                          Major page faults:           76
                 Voluntary context switches:         2368
