PROCAR lm decomposed
# of k-points:   60         # of bands:   12         # of ions:    1

 k-point     1 :    0.06250000 0.06250000 0.06250000     weight = 0.00390625

band     1 # energy    0.62259570 # occ.  1.00000000
 
ion      s     py     pz     px    dxy    dyz    dz2    dxz  x2-y2    tot
    1  0.630  0.003  0.003  0.003  0.000  0.000  0.000  0.000  0.000  0.639
 
band     2 # energy    6.20320724 # occ.  1.00000000
 
ion      s     py     pz     px    dxy    dyz    dz2    dxz  x2-y2    tot
    1  0.000  0.000  0.000  0.000  0.320  0.320  0.000  0.320  0.000  0.962
 
band     3 # energy    6.26994028 # occ.  1.00000000
 
ion      s     py     pz     px    dxy    dyz    dz2    dxz  x2-y2    tot
    1  0.000  0.000  0.000  0.000  0.081  0.493  0.000  0.389  0.001  0.964
 
band     4 # energy    6.26994028 # occ.  1.00000000
 
ion      s     py     pz     px    dxy    dyz    dz2    dxz  x2-y2    tot
    1  0.000  0.000  0.000  0.000  0.561  0.149  0.001  0.253  0.000  0.964
 
band     5 # energy    7.08103152 # occ.  1.00000000
 
ion      s     py     pz     px    dxy    dyz    dz2    dxz  x2-y2    tot
    1  0.000  0.000  0.000  0.000  0.001  0.000  0.936  0.000  0.044  0.981
 
band     6 # energy    7.08103152 # occ.  1.00000000
 
ion      s     py     pz     px    dxy    dyz    dz2    dxz  x2-y2    tot
    1  0.000  0.000  0.000  0.000  0.000  0.001  0.044  0.001  0.936  0.981
 
band     7 # energy   30.46254180 # occ.  0.00000000
 
ion      s     py     pz     px    dxy    dyz    dz2    dxz  x2-y2    tot
    1  0.001  0.012  0.012  0.012  0.053  0.053  0.000  0.053  0.000  0.194
 
band     8 # energy   32.79838318 # occ.  0.00000000
 
ion      s     py     pz     px    dxy    dyz    dz2    dxz  x2-y2    tot
    1  0.019  0.091  0.091  0.091  0.029  0.029  0.000  0.029  0.000  0.378
 
band     9 # energy   34.09537774 # occ.  0.00000000
 
ion      s     py     pz     px    dxy    dyz    dz2    dxz  x2-y2    tot
    1  0.000  0.036  0.078  0.218  0.033  0.093  0.004  0.015  0.008  0.485
 
band    10 # energy   34.09537775 # occ.  0.00000000
 
ion      s     py     pz     px    dxy    dyz    dz2    dxz  x2-y2    tot
    1  0.000  0.185  0.143  0.003  0.061  0.001  0.008  0.079  0.004  0.485
 
band    11 # energy   37.68566805 # occ.  0.00000000
 
ion      s     py     pz     px    dxy    dyz    dz2    dxz  x2-y2    tot
    1  0.000  0.004  0.010  0.002  0.604  0.138  0.005  0.223  0.000  0.986
 
band    12 # energy   37.68566820 # occ.  0.00000000
 
ion      s     py     pz     px    dxy    dyz    dz2    dxz  x2-y2    tot
    1  0.000  0.007  0.001  0.008  0.040  0.505  0.000  0.421  0.005  0.986
 

 k-point     2 :    0.18750000 0.06250000 0.06250000     weight = 0.01171875

band     1 # energy    1.35998325 # occ.  1.00000000
 
ion      s     py     pz     px    dxy    dyz    dz2    dxz  x2-y2    tot
    1  0.584  0.024  0.024  0.003  0.001  0.004  0.000  0.001  0.001  0.642
 
band     2 # energy    6.03034979 # occ.  1.00000000
 
ion      s     py     pz     px    dxy    dyz    dz2    dxz  x2-y2    tot
    1  0.000  0.001  0.001  0.005  0.455  0.033  0.000  0.455  0.000  0.951
 
band     3 # energy    6.40033234 # occ.  1.00000000
 
ion      s     py     pz     px    dxy    dyz    dz2    dxz  x2-y2    tot
    1  0.000  0.002  0.002  0.000  0.016  0.830  0.024  0.016  0.073  0.963
 
band     4 # energy    6.40636001 # occ.  1.00000000
 
ion      s     py     pz     px    dxy    dyz    dz2    dxz  x2-y2    tot
    1  0.000  0.000  0.000  0.000  0.470  0.000  0.019  0.470  0.006  0.965
 
band     5 # energy    6.95654242 # occ.  1.00000000
 
ion      s     py     pz     px    dxy    dyz    dz2    dxz  x2-y2    tot
    1  0.000  0.000  0.000  0.000  0.013  0.000  0.713  0.013  0.238  0.976
 
band     6 # energy    7.16154135 # occ.  1.00000000
 
ion      s     py     pz     px    dxy    dyz    dz2    dxz  x2-y2    tot
    1  0.001  0.000  0.000  0.000  0.002  0.093  0.220  0.002  0.661  0.980
 
band     7 # energy   27.31586771 # occ.  0.00000000
 
ion      s     py     pz     px    dxy    dyz    dz2    dxz  x2-y2    tot
    1  0.029  0.052  0.052  0.124  0.144  0.075  0.001  0.144  0.002  0.621
 
band     8 # energy   29.85486814 # occ.  0.00000000
 
ion      s     py     pz     px    dxy    dyz    dz2    dxz  x2-y2    tot
    1  0.037  0.085  0.085  0.049  0.060  0.121  0.005  0.060  0.014  0.516
 
band     9 # energy   33.27980468 # occ.  0.00000000
 
ion      s     py     pz     px    dxy    dyz    dz2    dxz  x2-y2    tot
    1  0.002  0.005  0.005  0.211  0.003  0.051  0.000  0.003  0.001  0.282
 
band    10 # energy   35.05466387 # occ.  0.00000000
 
ion      s     py     pz     px    dxy    dyz    dz2    dxz  x2-y2    tot
    1  0.000  0.131  0.131  0.000  0.095  0.000  0.083  0.095  0.028  0.563
 
band    11 # energy   36.89618928 # occ.  0.00000000
 
ion      s     py     pz     px    dxy    dyz    dz2    dxz  x2-y2    tot
    1  0.000  0.055  0.055  0.012  0.000  0.205  0.013  0.000  0.038  0.379
 
band    12 # energy   37.87909098 # occ.  0.00000000
 
ion      s     py     pz     px    dxy    dyz    dz2    dxz  x2-y2    tot
    1  0.000  0.000  0.000  0.000  0.376  0.000  0.088  0.376  0.029  0.870
 

 k-point     3 :    0.31250000 0.06250000 0.06250000     weight = 0.01171875

band     1 # energy    2.93327908 # occ.  1.00000000
 
ion      s     py     pz     px    dxy    dyz    dz2    dxz  x2-y2    tot
    1  0.450  0.049  0.049  0.014  0.028  0.051  0.001  0.028  0.003  0.673
 
band     2 # energy    5.95058905 # occ.  1.00000000
 
ion      s     py     pz     px    dxy    dyz    dz2    dxz  x2-y2    tot
    1  0.020  0.017  0.017  0.025  0.384  0.055  0.001  0.384  0.002  0.905
 
band     3 # energy    6.34373086 # occ.  1.00000000
 
ion      s     py     pz     px    dxy    dyz    dz2    dxz  x2-y2    tot
    1  0.000  0.002  0.002  0.000  0.030  0.459  0.108  0.030  0.325  0.958
 
band     4 # energy    6.40299085 # occ.  1.00000000
 
ion      s     py     pz     px    dxy    dyz    dz2    dxz  x2-y2    tot
    1  0.000  0.000  0.000  0.000  0.254  0.000  0.341  0.254  0.114  0.963
 
band     5 # energy    7.15506147 # occ.  1.00000000
 
ion      s     py     pz     px    dxy    dyz    dz2    dxz  x2-y2    tot
    1  0.000  0.001  0.001  0.000  0.230  0.000  0.386  0.230  0.129  0.975
 
band     6 # energy    7.51716533 # occ.  1.00000000
 
ion      s     py     pz     px    dxy    dyz    dz2    dxz  x2-y2    tot
    1  0.009  0.004  0.004  0.000  0.017  0.390  0.134  0.017  0.401  0.976
 
band     7 # energy   21.41377226 # occ.  0.00000000
 
ion      s     py     pz     px    dxy    dyz    dz2    dxz  x2-y2    tot
    1  0.120  0.078  0.078  0.129  0.113  0.088  0.001  0.113  0.002  0.722
 
band     8 # energy   28.83964863 # occ.  0.00000000
 
ion      s     py     pz     px    dxy    dyz    dz2    dxz  x2-y2    tot
    1  0.029  0.041  0.041  0.139  0.088  0.065  0.014  0.088  0.041  0.545
 
band     9 # energy   32.27067891 # occ.  0.00000000
 
ion      s     py     pz     px    dxy    dyz    dz2    dxz  x2-y2    tot
    1  0.000  0.056  0.056  0.110  0.000  0.086  0.000  0.000  0.000  0.309
 
band    10 # energy   34.38232479 # occ.  0.00000000
 
ion      s     py     pz     px    dxy    dyz    dz2    dxz  x2-y2    tot
    1  0.000  0.198  0.198  0.000  0.180  0.000  0.024  0.180  0.008  0.787
 
band    11 # energy   35.70322052 # occ.  0.00000000
 
ion      s     py     pz     px    dxy    dyz    dz2    dxz  x2-y2    tot
    1  0.000  0.061  0.061  0.000  0.010  0.000  0.452  0.010  0.151  0.745
 
band    12 # energy   36.79441970 # occ.  0.00000000
 
ion      s     py     pz     px    dxy    dyz    dz2    dxz  x2-y2    tot
    1  0.055  0.054  0.054  0.012  0.011  0.029  0.059  0.011  0.178  0.461
 

 k-point     4 :    0.43750000 0.06250000 0.06250000     weight = 0.01171875

band     1 # energy    4.04679367 # occ.  1.00000000
 
ion      s     py     pz     px    dxy    dyz    dz2    dxz  x2-y2    tot
    1  0.204  0.018  0.018  0.002  0.184  0.205  0.000  0.184  0.001  0.817
 
band     2 # energy    6.14671804 # occ.  1.00000000
 
ion      s     py     pz     px    dxy    dyz    dz2    dxz  x2-y2    tot
    1  0.000  0.002  0.002  0.000  0.045  0.275  0.146  0.045  0.438  0.953
 
band     3 # energy    6.22602965 # occ.  1.00000000
 
ion      s     py     pz     px    dxy    dyz    dz2    dxz  x2-y2    tot
    1  0.000  0.000  0.000  0.000  0.177  0.000  0.453  0.177  0.151  0.958
 
band     4 # energy    6.90945141 # occ.  1.00000000
 
ion      s     py     pz     px    dxy    dyz    dz2    dxz  x2-y2    tot
    1  0.051  0.073  0.073  0.073  0.198  0.036  0.026  0.198  0.078  0.807
 
band     5 # energy    7.62229069 # occ.  1.00000000
 
ion      s     py     pz     px    dxy    dyz    dz2    dxz  x2-y2    tot
    1  0.000  0.000  0.000  0.000  0.311  0.000  0.272  0.311  0.091  0.984
 
band     6 # energy    8.26043822 # occ.  1.00000000
 
ion      s     py     pz     px    dxy    dyz    dz2    dxz  x2-y2    tot
    1  0.049  0.049  0.049  0.031  0.004  0.423  0.070  0.004  0.209  0.889
 
band     7 # energy   16.28365982 # occ.  0.00000000
 
ion      s     py     pz     px    dxy    dyz    dz2    dxz  x2-y2    tot
    1  0.275  0.046  0.046  0.092  0.115  0.091  0.001  0.115  0.002  0.784
 
band     8 # energy   28.51691684 # occ.  0.00000000
 
ion      s     py     pz     px    dxy    dyz    dz2    dxz  x2-y2    tot
    1  0.018  0.015  0.015  0.158  0.052  0.037  0.024  0.052  0.073  0.444
 
band     9 # energy   30.97223421 # occ.  0.00000000
 
ion      s     py     pz     px    dxy    dyz    dz2    dxz  x2-y2    tot
    1  0.011  0.093  0.093  0.145  0.005  0.011  0.000  0.005  0.001  0.363
 
band    10 # energy   32.33631625 # occ.  0.00000000
 
ion      s     py     pz     px    dxy    dyz    dz2    dxz  x2-y2    tot
    1  0.000  0.271  0.271  0.000  0.001  0.000  0.096  0.001  0.032  0.672
 
band    11 # energy   34.89673226 # occ.  0.00000000
 
ion      s     py     pz     px    dxy    dyz    dz2    dxz  x2-y2    tot
    1  0.000  0.023  0.023  0.000  0.173  0.000  0.379  0.173  0.126  0.897
 
band    12 # energy   36.42662568 # occ.  0.00000000
 
ion      s     py     pz     px    dxy    dyz    dz2    dxz  x2-y2    tot
    1  0.047  0.014  0.014  0.012  0.000  0.205  0.115  0.000  0.346  0.753
 

 k-point     5 :   -0.43750000 0.06250000 0.06250000     weight = 0.01171875

band     1 # energy    4.17677423 # occ.  1.00000000
 
ion      s     py     pz     px    dxy    dyz    dz2    dxz  x2-y2    tot
    1  0.143  0.000  0.000  0.006  0.230  0.250  0.000  0.230  0.000  0.859
 
band     2 # energy    6.06572757 # occ.  1.00000000
 
ion      s     py     pz     px    dxy    dyz    dz2    dxz  x2-y2    tot
    1  0.000  0.002  0.002  0.000  0.061  0.193  0.158  0.061  0.474  0.950
 
band     3 # energy    6.18167355 # occ.  1.00000000
 
ion      s     py     pz     px    dxy    dyz    dz2    dxz  x2-y2    tot
    1  0.000  0.000  0.000  0.000  0.176  0.000  0.454  0.176  0.151  0.957
 
band     4 # energy    7.36566021 # occ.  1.00000000
 
ion      s     py     pz     px    dxy    dyz    dz2    dxz  x2-y2    tot
    1  0.002  0.046  0.046  0.045  0.073  0.390  0.054  0.073  0.161  0.889
 
band     5 # energy    7.85527603 # occ.  1.00000000
 
ion      s     py     pz     px    dxy    dyz    dz2    dxz  x2-y2    tot
    1  0.000  0.000  0.000  0.000  0.313  0.000  0.272  0.313  0.091  0.990
 
band     6 # energy    9.15794213 # occ.  0.00000000
 
ion      s     py     pz     px    dxy    dyz    dz2    dxz  x2-y2    tot
    1  0.009  0.140  0.140  0.156  0.045  0.054  0.030  0.045  0.089  0.706
 
band     7 # energy   14.15855176 # occ.  0.00000000
 
ion      s     py     pz     px    dxy    dyz    dz2    dxz  x2-y2    tot
    1  0.421  0.011  0.011  0.000  0.130  0.144  0.000  0.130  0.000  0.847
 
band     8 # energy   28.83600441 # occ.  0.00000000
 
ion      s     py     pz     px    dxy    dyz    dz2    dxz  x2-y2    tot
    1  0.002  0.000  0.000  0.073  0.011  0.035  0.029  0.011  0.087  0.248
 
band     9 # energy   30.64670416 # occ.  0.00000000
 
ion      s     py     pz     px    dxy    dyz    dz2    dxz  x2-y2    tot
    1  0.000  0.255  0.255  0.000  0.028  0.000  0.088  0.028  0.029  0.682
 
band    10 # energy   30.84662333 # occ.  0.00000000
 
ion      s     py     pz     px    dxy    dyz    dz2    dxz  x2-y2    tot
    1  0.037  0.093  0.093  0.286  0.009  0.009  0.006  0.009  0.018  0.561
 
band    11 # energy   35.65076984 # occ.  0.00000000
 
ion      s     py     pz     px    dxy    dyz    dz2    dxz  x2-y2    tot
    1  0.000  0.049  0.049  0.000  0.127  0.000  0.380  0.127  0.127  0.858
 
band    12 # energy   35.76372261 # occ.  0.00000000
 
ion      s     py     pz     px    dxy    dyz    dz2    dxz  x2-y2    tot
    1  0.010  0.002  0.002  0.026  0.022  0.228  0.122  0.022  0.366  0.801
 

 k-point     6 :   -0.31250000 0.06250000 0.06250000     weight = 0.01171875

band     1 # energy    3.83026344 # occ.  1.00000000
 
ion      s     py     pz     px    dxy    dyz    dz2    dxz  x2-y2    tot
    1  0.278  0.014  0.014  0.044  0.138  0.135  0.002  0.138  0.005  0.767
 
band     2 # energy    6.17945914 # occ.  1.00000000
 
ion      s     py     pz     px    dxy    dyz    dz2    dxz  x2-y2    tot
    1  0.001  0.003  0.003  0.002  0.106  0.108  0.156  0.106  0.467  0.949
 
band     3 # energy    6.30302628 # occ.  1.00000000
 
ion      s     py     pz     px    dxy    dyz    dz2    dxz  x2-y2    tot
    1  0.000  0.001  0.001  0.000  0.216  0.000  0.394  0.216  0.131  0.960
 
band     4 # energy    6.43315340 # occ.  1.00000000
 
ion      s     py     pz     px    dxy    dyz    dz2    dxz  x2-y2    tot
    1  0.060  0.056  0.056  0.058  0.014  0.556  0.004  0.014  0.011  0.829
 
band     5 # energy    7.68061894 # occ.  1.00000000
 
ion      s     py     pz     px    dxy    dyz    dz2    dxz  x2-y2    tot
    1  0.000  0.000  0.000  0.000  0.270  0.000  0.334  0.270  0.111  0.986
 
band     6 # energy    7.76808928 # occ.  1.00000000
 
ion      s     py     pz     px    dxy    dyz    dz2    dxz  x2-y2    tot
    1  0.033  0.014  0.014  0.031  0.198  0.126  0.080  0.198  0.241  0.936
 
band     7 # energy   17.84447758 # occ.  0.00000000
 
ion      s     py     pz     px    dxy    dyz    dz2    dxz  x2-y2    tot
    1  0.214  0.094  0.094  0.050  0.093  0.120  0.001  0.093  0.002  0.760
 
band     8 # energy   29.55143297 # occ.  0.00000000
 
ion      s     py     pz     px    dxy    dyz    dz2    dxz  x2-y2    tot
    1  0.007  0.006  0.006  0.002  0.000  0.096  0.022  0.000  0.065  0.204
 
band     9 # energy   30.14992747 # occ.  0.00000000
 
ion      s     py     pz     px    dxy    dyz    dz2    dxz  x2-y2    tot
    1  0.000  0.230  0.230  0.000  0.096  0.000  0.058  0.096  0.019  0.729
 
band    10 # energy   32.31469492 # occ.  0.00000000
 
ion      s     py     pz     px    dxy    dyz    dz2    dxz  x2-y2    tot
    1  0.045  0.048  0.048  0.399  0.000  0.068  0.020  0.000  0.061  0.690
 
band    11 # energy   35.66632480 # occ.  0.00000000
 
ion      s     py     pz     px    dxy    dyz    dz2    dxz  x2-y2    tot
    1  0.000  0.002  0.002  0.013  0.060  0.137  0.115  0.060  0.344  0.733
 
band    12 # energy   37.31167719 # occ.  0.00000000
 
ion      s     py     pz     px    dxy    dyz    dz2    dxz  x2-y2    tot
    1  0.000  0.062  0.062  0.000  0.046  0.000  0.397  0.046  0.132  0.745
 

 k-point     7 :   -0.18750000 0.06250000 0.06250000     weight = 0.01171875

band     1 # energy    2.36296978 # occ.  1.00000000
 
ion      s     py     pz     px    dxy    dyz    dz2    dxz  x2-y2    tot
    1  0.508  0.020  0.020  0.059  0.017  0.009  0.001  0.017  0.003  0.653
 
band     2 # energy    5.90427758 # occ.  1.00000000
 
ion      s     py     pz     px    dxy    dyz    dz2    dxz  x2-y2    tot
    1  0.007  0.011  0.011  0.007  0.134  0.625  0.000  0.134  0.001  0.929
 
band     3 # energy    6.39796260 # occ.  1.00000000
 
ion      s     py     pz     px    dxy    dyz    dz2    dxz  x2-y2    tot
    1  0.000  0.001  0.001  0.001  0.188  0.200  0.096  0.188  0.288  0.962
 
band     4 # energy    6.44958917 # occ.  1.00000000
 
ion      s     py     pz     px    dxy    dyz    dz2    dxz  x2-y2    tot
    1  0.000  0.001  0.001  0.000  0.344  0.000  0.206  0.344  0.069  0.964
 
band     5 # energy    7.09440388 # occ.  1.00000000
 
ion      s     py     pz     px    dxy    dyz    dz2    dxz  x2-y2    tot
    1  0.005  0.001  0.001  0.004  0.135  0.111  0.145  0.135  0.434  0.970
 
band     6 # energy    7.30263966 # occ.  1.00000000
 
ion      s     py     pz     px    dxy    dyz    dz2    dxz  x2-y2    tot
    1  0.000  0.000  0.000  0.000  0.138  0.000  0.527  0.138  0.176  0.981
 
band     7 # energy   23.33937205 # occ.  0.00000000
 
ion      s     py     pz     px    dxy    dyz    dz2    dxz  x2-y2    tot
    1  0.085  0.111  0.111  0.062  0.100  0.128  0.001  0.100  0.002  0.700
 
band     8 # energy   30.47398918 # occ.  0.00000000
 
ion      s     py     pz     px    dxy    dyz    dz2    dxz  x2-y2    tot
    1  0.029  0.001  0.001  0.021  0.000  0.170  0.012  0.000  0.037  0.272
 
band     9 # energy   30.68773664 # occ.  0.00000000
 
ion      s     py     pz     px    dxy    dyz    dz2    dxz  x2-y2    tot
    1  0.000  0.200  0.200  0.000  0.153  0.000  0.029  0.153  0.010  0.745
 
band    10 # energy   34.92312910 # occ.  0.00000000
 
ion      s     py     pz     px    dxy    dyz    dz2    dxz  x2-y2    tot
    1  0.023  0.009  0.009  0.362  0.029  0.142  0.021  0.029  0.064  0.688
 
band    11 # energy   35.55604557 # occ.  0.00000000
 
ion      s     py     pz     px    dxy    dyz    dz2    dxz  x2-y2    tot
    1  0.004  0.044  0.044  0.007  0.025  0.020  0.074  0.025  0.221  0.463
 
band    12 # energy   39.43709626 # occ.  0.00000000
 
ion      s     py     pz     px    dxy    dyz    dz2    dxz  x2-y2    tot
    1  0.001  0.118  0.121  0.051  0.030  0.072  0.047  0.030  0.126  0.596
 

 k-point     8 :   -0.06250000 0.06250000 0.06250000     weight = 0.01171875

band     1 # energy    0.99686916 # occ.  1.00000000
 
ion      s     py     pz     px    dxy    dyz    dz2    dxz  x2-y2    tot
    1  0.607  0.003  0.003  0.025  0.000  0.000  0.000  0.000  0.001  0.640
 
band     2 # energy    6.08612413 # occ.  1.00000000
 
ion      s     py     pz     px    dxy    dyz    dz2    dxz  x2-y2    tot
    1  0.000  0.001  0.001  0.000  0.057  0.841  0.000  0.057  0.000  0.957
 
band     3 # energy    6.36222202 # occ.  1.00000000
 
ion      s     py     pz     px    dxy    dyz    dz2    dxz  x2-y2    tot
    1  0.000  0.001  0.001  0.000  0.418  0.115  0.003  0.418  0.008  0.964
 
band     4 # energy    6.36553178 # occ.  1.00000000
 
ion      s     py     pz     px    dxy    dyz    dz2    dxz  x2-y2    tot
    1  0.000  0.001  0.001  0.000  0.475  0.000  0.010  0.475  0.003  0.964
 
band     5 # energy    6.97147573 # occ.  1.00000000
 
ion      s     py     pz     px    dxy    dyz    dz2    dxz  x2-y2    tot
    1  0.001  0.000  0.000  0.000  0.005  0.001  0.241  0.005  0.724  0.976
 
band     6 # energy    7.13732531 # occ.  1.00000000
 
ion      s     py     pz     px    dxy    dyz    dz2    dxz  x2-y2    tot
    1  0.000  0.000  0.000  0.000  0.007  0.000  0.726  0.007  0.242  0.982
 
band     7 # energy   29.19181265 # occ.  0.00000000
 
ion      s     py     pz     px    dxy    dyz    dz2    dxz  x2-y2    tot
    1  0.010  0.061  0.061  0.020  0.076  0.185  0.000  0.076  0.001  0.491
 
band     8 # energy   31.47910866 # occ.  0.00000000
 
ion      s     py     pz     px    dxy    dyz    dz2    dxz  x2-y2    tot
    1  0.031  0.040  0.040  0.075  0.030  0.059  0.004  0.030  0.012  0.319
 
band     9 # energy   32.06609650 # occ.  0.00000000
 
ion      s     py     pz     px    dxy    dyz    dz2    dxz  x2-y2    tot
    1  0.000  0.176  0.176  0.000  0.160  0.000  0.005  0.160  0.002  0.679
 
band    10 # energy   34.08910402 # occ.  0.00000000
 
ion      s     py     pz     px    dxy    dyz    dz2    dxz  x2-y2    tot
    1  0.011  0.080  0.080  0.080  0.021  0.001  0.019  0.021  0.056  0.369
 
band    11 # energy   37.66164006 # occ.  0.00000000
 
ion      s     py     pz     px    dxy    dyz    dz2    dxz  x2-y2    tot
    1  0.000  0.002  0.002  0.072  0.185  0.366  0.002  0.185  0.007  0.823
 
band    12 # energy   39.50679043 # occ.  0.00000000
 
ion      s     py     pz     px    dxy    dyz    dz2    dxz  x2-y2    tot
    1  0.001  0.000  0.000  0.176  0.000  0.434  0.002  0.015  0.012  0.641
 

 k-point     9 :    0.18750000 0.18750000 0.06250000     weight = 0.01171875

band     1 # energy    1.71421055 # occ.  1.00000000
 
ion      s     py     pz     px    dxy    dyz    dz2    dxz  x2-y2    tot
    1  0.558  0.003  0.067  0.003  0.000  0.001  0.010  0.001  0.000  0.643
 
band     2 # energy    5.85855051 # occ.  1.00000000
 
ion      s     py     pz     px    dxy    dyz    dz2    dxz  x2-y2    tot
    1  0.000  0.001  0.000  0.001  0.909  0.018  0.000  0.018  0.000  0.948
 
band     3 # energy    6.52173481 # occ.  1.00000000
 
ion      s     py     pz     px    dxy    dyz    dz2    dxz  x2-y2    tot
    1  0.000  0.002  0.000  0.002  0.033  0.379  0.169  0.379  0.000  0.964
 
band     4 # energy    6.55119470 # occ.  1.00000000
 
ion      s     py     pz     px    dxy    dyz    dz2    dxz  x2-y2    tot
    1  0.000  0.002  0.000  0.002  0.000  0.461  0.000  0.461  0.039  0.965
 
band     5 # energy    6.82884697 # occ.  1.00000000
 
ion      s     py     pz     px    dxy    dyz    dz2    dxz  x2-y2    tot
    1  0.006  0.000  0.003  0.000  0.006  0.080  0.790  0.080  0.000  0.967
 
band     6 # energy    7.24216310 # occ.  1.00000000
 
ion      s     py     pz     px    dxy    dyz    dz2    dxz  x2-y2    tot
    1  0.000  0.000  0.000  0.000  0.000  0.020  0.000  0.020  0.943  0.983
 
band     7 # energy   27.59306870 # occ.  0.00000000
 
ion      s     py     pz     px    dxy    dyz    dz2    dxz  x2-y2    tot
    1  0.021  0.111  0.019  0.111  0.188  0.090  0.008  0.090  0.000  0.636
 
band     8 # energy   29.87042925 # occ.  0.00000000
 
ion      s     py     pz     px    dxy    dyz    dz2    dxz  x2-y2    tot
    1  0.000  0.204  0.000  0.204  0.000  0.153  0.000  0.153  0.005  0.719
 
band     9 # energy   30.18679439 # occ.  0.00000000
 
ion      s     py     pz     px    dxy    dyz    dz2    dxz  x2-y2    tot
    1  0.031  0.017  0.025  0.017  0.224  0.014  0.059  0.014  0.000  0.401
 
band    10 # energy   32.33511649 # occ.  0.00000000
 
ion      s     py     pz     px    dxy    dyz    dz2    dxz  x2-y2    tot
    1  0.006  0.064  0.000  0.064  0.041  0.038  0.184  0.038  0.000  0.435
 
band    11 # energy   36.56920006 # occ.  0.00000000
 
ion      s     py     pz     px    dxy    dyz    dz2    dxz  x2-y2    tot
    1  0.133  0.018  0.572  0.018  0.001  0.001  0.127  0.001  0.000  0.871
 
band    12 # energy   40.03389545 # occ.  0.00000000
 
ion      s     py     pz     px    dxy    dyz    dz2    dxz  x2-y2    tot
    1  0.012  0.000  0.001  0.000  0.340  0.126  0.051  0.125  0.000  0.655
 

 k-point    10 :    0.31250000 0.18750000 0.06250000     weight = 0.02343750

band     1 # energy    2.98167932 # occ.  1.00000000
 
ion      s     py     pz     px    dxy    dyz    dz2    dxz  x2-y2    tot
    1  0.449  0.019  0.110  0.002  0.002  0.028  0.047  0.004  0.000  0.661
 
band     2 # energy    5.61025657 # occ.  1.00000000
 
ion      s     py     pz     px    dxy    dyz    dz2    dxz  x2-y2    tot
    1  0.001  0.002  0.001  0.009  0.838  0.006  0.003  0.074  0.000  0.934
 
band     3 # energy    6.32813914 # occ.  1.00000000
 
ion      s     py     pz     px    dxy    dyz    dz2    dxz  x2-y2    tot
    1  0.006  0.003  0.002  0.000  0.017  0.325  0.551  0.015  0.035  0.953
 
band     4 # energy    6.75964442 # occ.  1.00000000
 
ion      s     py     pz     px    dxy    dyz    dz2    dxz  x2-y2    tot
    1  0.002  0.002  0.002  0.003  0.039  0.128  0.054  0.523  0.213  0.966
 
band     5 # energy    7.07148299 # occ.  1.00000000
 
ion      s     py     pz     px    dxy    dyz    dz2    dxz  x2-y2    tot
    1  0.012  0.002  0.010  0.003  0.038  0.103  0.229  0.336  0.230  0.962
 
band     6 # energy    7.58088131 # occ.  1.00000000
 
ion      s     py     pz     px    dxy    dyz    dz2    dxz  x2-y2    tot
    1  0.013  0.004  0.007  0.000  0.001  0.372  0.074  0.003  0.501  0.975
 
band     7 # energy   23.86591555 # occ.  0.00000000
 
ion      s     py     pz     px    dxy    dyz    dz2    dxz  x2-y2    tot
    1  0.058  0.102  0.023  0.187  0.153  0.065  0.013  0.100  0.002  0.703
 
band     8 # energy   26.36612103 # occ.  0.00000000
 
ion      s     py     pz     px    dxy    dyz    dz2    dxz  x2-y2    tot
    1  0.043  0.154  0.016  0.138  0.085  0.098  0.035  0.065  0.016  0.649
 
band     9 # energy   30.06237555 # occ.  0.00000000
 
ion      s     py     pz     px    dxy    dyz    dz2    dxz  x2-y2    tot
    1  0.011  0.043  0.108  0.020  0.023  0.014  0.309  0.011  0.003  0.541
 
band    10 # energy   31.85780303 # occ.  0.00000000
 
ion      s     py     pz     px    dxy    dyz    dz2    dxz  x2-y2    tot
    1  0.034  0.008  0.088  0.094  0.290  0.003  0.037  0.048  0.001  0.601
 
band    11 # energy   35.70197495 # occ.  0.00000000
 
ion      s     py     pz     px    dxy    dyz    dz2    dxz  x2-y2    tot
    1  0.130  0.187  0.293  0.030  0.024  0.042  0.000  0.006  0.000  0.712
 
band    12 # energy   39.89864086 # occ.  0.00000000
 
ion      s     py     pz     px    dxy    dyz    dz2    dxz  x2-y2    tot
    1  0.016  0.025  0.018  0.002  0.048  0.005  0.159  0.026  0.150  0.449
 

 k-point    11 :    0.43750000 0.18750000 0.06250000     weight = 0.02343750

band     1 # energy    4.29577327 # occ.  1.00000000
 
ion      s     py     pz     px    dxy    dyz    dz2    dxz  x2-y2    tot
    1  0.219  0.016  0.078  0.001  0.148  0.143  0.090  0.083  0.001  0.779
 
band     2 # energy    5.71443008 # occ.  1.00000000
 
ion      s     py     pz     px    dxy    dyz    dz2    dxz  x2-y2    tot
    1  0.011  0.029  0.017  0.029  0.336  0.029  0.359  0.063  0.012  0.884
 
band     3 # energy    6.08435456 # occ.  1.00000000
 
ion      s     py     pz     px    dxy    dyz    dz2    dxz  x2-y2    tot
    1  0.023  0.001  0.018  0.006  0.340  0.266  0.231  0.004  0.042  0.932
 
band     4 # energy    6.61806328 # occ.  1.00000000
 
ion      s     py     pz     px    dxy    dyz    dz2    dxz  x2-y2    tot
    1  0.002  0.003  0.004  0.001  0.040  0.070  0.050  0.283  0.507  0.960
 
band     5 # energy    7.66116001 # occ.  1.00000000
 
ion      s     py     pz     px    dxy    dyz    dz2    dxz  x2-y2    tot
    1  0.002  0.001  0.005  0.003  0.035  0.071  0.047  0.476  0.340  0.980
 
band     6 # energy    8.67818829 # occ.  0.99999985
 
ion      s     py     pz     px    dxy    dyz    dz2    dxz  x2-y2    tot
    1  0.088  0.029  0.075  0.015  0.013  0.385  0.176  0.039  0.070  0.891
 
band     7 # energy   18.35110481 # occ.  0.00000000
 
ion      s     py     pz     px    dxy    dyz    dz2    dxz  x2-y2    tot
    1  0.179  0.097  0.022  0.161  0.137  0.059  0.012  0.077  0.003  0.747
 
band     8 # energy   25.85081041 # occ.  0.00000000
 
ion      s     py     pz     px    dxy    dyz    dz2    dxz  x2-y2    tot
    1  0.023  0.117  0.000  0.184  0.080  0.057  0.078  0.040  0.052  0.630
 
band     9 # energy   27.59533271 # occ.  0.00000000
 
ion      s     py     pz     px    dxy    dyz    dz2    dxz  x2-y2    tot
    1  0.071  0.007  0.239  0.055  0.000  0.001  0.235  0.024  0.010  0.643
 
band    10 # energy   31.42639944 # occ.  0.00000000
 
ion      s     py     pz     px    dxy    dyz    dz2    dxz  x2-y2    tot
    1  0.059  0.147  0.095  0.025  0.207  0.016  0.000  0.012  0.005  0.566
 
band    11 # energy   37.81920062 # occ.  0.00000000
 
ion      s     py     pz     px    dxy    dyz    dz2    dxz  x2-y2    tot
    1  0.011  0.120  0.004  0.003  0.172  0.021  0.066  0.035  0.189  0.622
 
band    12 # energy   39.96553800 # occ.  0.00000000
 
ion      s     py     pz     px    dxy    dyz    dz2    dxz  x2-y2    tot
    1  0.077  0.090  0.097  0.065  0.012  0.003  0.220  0.006  0.014  0.585
 

 k-point    12 :   -0.43750000 0.18750000 0.06250000     weight = 0.02343750

band     1 # energy    4.59394914 # occ.  1.00000000
 
ion      s     py     pz     px    dxy    dyz    dz2    dxz  x2-y2    tot
    1  0.103  0.000  0.019  0.007  0.329  0.235  0.010  0.166  0.000  0.870
 
band     2 # energy    5.72418475 # occ.  1.00000000
 
ion      s     py     pz     px    dxy    dyz    dz2    dxz  x2-y2    tot
    1  0.000  0.020  0.002  0.009  0.032  0.078  0.683  0.012  0.075  0.911
 
band     3 # energy    6.46079882 # occ.  1.00000000
 
ion      s     py     pz     px    dxy    dyz    dz2    dxz  x2-y2    tot
    1  0.000  0.004  0.004  0.017  0.043  0.201  0.100  0.135  0.440  0.946
 
band     4 # energy    6.52548933 # occ.  1.00000000
 
ion      s     py     pz     px    dxy    dyz    dz2    dxz  x2-y2    tot
    1  0.002  0.031  0.047  0.024  0.392  0.130  0.004  0.115  0.157  0.901
 
band     5 # energy    7.82790275 # occ.  1.00000000
 
ion      s     py     pz     px    dxy    dyz    dz2    dxz  x2-y2    tot
    1  0.000  0.000  0.000  0.000  0.037  0.175  0.028  0.473  0.275  0.988
 
band     6 # energy   10.80033750 # occ.  0.00000000
 
ion      s     py     pz     px    dxy    dyz    dz2    dxz  x2-y2    tot
    1  0.015  0.119  0.169  0.117  0.047  0.102  0.139  0.016  0.017  0.741
 
band     7 # energy   14.37843755 # occ.  0.00000000
 
ion      s     py     pz     px    dxy    dyz    dz2    dxz  x2-y2    tot
    1  0.392  0.015  0.007  0.052  0.151  0.104  0.001  0.103  0.001  0.825
 
band     8 # energy   25.33742654 # occ.  0.00000000
 
ion      s     py     pz     px    dxy    dyz    dz2    dxz  x2-y2    tot