   2   2   1   0
  0.8980893E+01  0.2342739E-09  0.2342739E-09  0.3778949E-09  0.5000000E-15
  1.000000000000000E-004
  CAR 
 Co-hcc                                  
     56.67531237      0.60821459  301     13.21618570      1.00000000
      0.608  0.0000E+00  0.0000E+00  0.0000E+00  0.0000E+00
      0.795  0.0000E+00  0.0000E+00  0.0000E+00  0.0000E+00
      0.982  0.0000E+00  0.0000E+00  0.0000E+00  0.0000E+00
      1.169  0.0000E+00  0.0000E+00  0.0000E+00  0.0000E+00
      1.356  0.0000E+00  0.0000E+00  0.0000E+00  0.0000E+00
      1.543  0.0000E+00  0.0000E+00  0.0000E+00  0.0000E+00
      1.730  0.0000E+00  0.0000E+00  0.0000E+00  0.0000E+00
      1.916  0.0000E+00  0.0000E+00  0.0000E+00  0.0000E+00
      2.103  0.0000E+00  0.0000E+00  0.0000E+00  0.0000E+00
      2.290  0.0000E+00  0.0000E+00  0.0000E+00  0.0000E+00
      2.477  0.0000E+00  0.0000E+00  0.0000E+00  0.0000E+00
      2.664  0.0000E+00  0.0000E+00  0.0000E+00  0.0000E+00
      2.851  0.0000E+00  0.0000E+00  0.0000E+00  0.0000E+00
      3.038  0.1785E-07  0.8013E-09  0.3336E-08  0.1497E-09
      3.225  0.4521E-04  0.4059E-04  0.8453E-05  0.7585E-05
      3.412  0.1550E-03  0.1046E-03  0.3743E-04  0.2713E-04
      3.598  0.3786E-03  0.3172E-03  0.1082E-03  0.8640E-04
      3.785  0.3971E-03  0.5131E-03  0.1824E-03  0.1823E-03
      3.972  0.1962E-03  0.1180E-03  0.2191E-03  0.2044E-03
      4.159  0.8609E-03  0.5215E-03  0.3800E-03  0.3018E-03
      4.346  0.7250E-03  0.1116E-02  0.5154E-03  0.5104E-03
      4.533  0.5398E-03  0.5606E-03  0.6163E-03  0.6151E-03
      4.720  0.6031E-03  0.4231E-03  0.7290E-03  0.6942E-03
      4.907  0.4516E-03  0.3034E-03  0.8134E-03  0.7509E-03
      5.094  0.1351E-02  0.1537E-02  0.1066E-02  0.1038E-02
      5.280  0.1032E-02  0.1161E-02  0.1259E-02  0.1255E-02
      5.467  0.7138E-03  0.1532E-03  0.1392E-02  0.1284E-02
      5.654  0.2147E-02  0.1479E-02  0.1793E-02  0.1560E-02
      5.841  0.3051E-03  0.1531E-02  0.1850E-02  0.1846E-02
      6.028  0.1105E-02  0.2622E-03  0.2057E-02  0.1895E-02
      6.215  0.9380E-03  0.9927E-03  0.2232E-02  0.2081E-02
      6.402  0.3138E-02  0.1951E-02  0.2819E-02  0.2446E-02
      6.589  0.2255E-02  0.2089E-02  0.3240E-02  0.2836E-02
      6.776  0.2022E-02  0.1704E-02  0.3618E-02  0.3154E-02
      6.962  0.1303E-02  0.1596E-02  0.3861E-02  0.3453E-02
      7.149  0.5722E-02  0.1007E-02  0.4931E-02  0.3641E-02
      7.336  0.1127E-01  0.2796E-02  0.7038E-02  0.4163E-02
      7.523  0.8883E-02  0.1602E-02  0.8698E-02  0.4463E-02
      7.710  0.1272E-01  0.3900E-02  0.1107E-01  0.5192E-02
      7.897  0.1037E-01  0.4658E-02  0.1301E-01  0.6062E-02
      8.084  0.1899E-01  0.6370E-02  0.1656E-01  0.7253E-02
      8.271  0.1294E-01  0.7677E-02  0.1898E-01  0.8688E-02
      8.458  0.1154E-01  0.6329E-02  0.2114E-01  0.9871E-02
      8.644  0.1334E-01  0.1118E-01  0.2363E-01  0.1196E-01
      8.831  0.1383E-01  0.8951E-02  0.2622E-01  0.1363E-01
      9.018  0.1593E-01  0.1160E-01  0.2919E-01  0.1580E-01
      9.205  0.1357E-01  0.1431E-01  0.3173E-01  0.1847E-01
      9.392  0.1762E-01  0.1027E-01  0.3502E-01  0.2039E-01
      9.579  0.1329E-01  0.9890E-02  0.3751E-01  0.2224E-01
      9.766  0.6987E-02  0.1030E-01  0.3881E-01  0.2417E-01
      9.953  0.1547E-01  0.1160E-01  0.4170E-01  0.2633E-01
     10.140  0.2215E-01  0.1438E-01  0.4584E-01  0.2902E-01
     10.327  0.2123E-01  0.1273E-01  0.4981E-01  0.3140E-01
     10.513  0.1958E-01  0.1901E-01  0.5347E-01  0.3495E-01
     10.700  0.2339E-01  0.1101E-01  0.5784E-01  0.3701E-01
     10.887  0.2388E-01  0.6500E-02  0.6230E-01  0.3823E-01
     11.074  0.2120E-01  0.6846E-02  0.6627E-01  0.3951E-01
     11.261  0.1829E-01  0.1399E-01  0.6968E-01  0.4212E-01
     11.448  0.1357E-01  0.1822E-01  0.7222E-01  0.4553E-01
     11.635  0.1415E-01  0.1908E-01  0.7486E-01  0.4909E-01
     11.822  0.1671E-01  0.1865E-01  0.7799E-01  0.5258E-01
     12.009  0.8728E-02  0.1794E-01  0.7962E-01  0.5593E-01
     12.195  0.1200E-01  0.2330E-01  0.8186E-01  0.6028E-01
     12.382  0.2028E-01  0.2292E-01  0.8565E-01  0.6457E-01
     12.569  0.1672E-01  0.1815E-01  0.8878E-01  0.6796E-01
     12.756  0.2625E-01  0.1212E-01  0.9368E-01  0.7022E-01
     12.943  0.3654E-01  0.1411E-01  0.1005E+00  0.7286E-01
     13.130  0.2048E-01  0.9231E-02  0.1043E+00  0.7458E-01
     13.317  0.1766E-02  0.1246E-01  0.1047E+00  0.7691E-01
     13.504  0.3024E-02  0.1217E-01  0.1052E+00  0.7919E-01
     13.691  0.5875E-02  0.8786E-02  0.1063E+00  0.8083E-01
     13.877  0.2773E-02  0.1044E-01  0.1069E+00  0.8278E-01
     14.064  0.2251E-02  0.1984E-01  0.1073E+00  0.8649E-01
     14.251  0.1293E-02  0.1367E-01  0.1075E+00  0.8904E-01
     14.438  0.7259E-03  0.2313E-01  0.1076E+00  0.9337E-01
     14.625  0.2515E-02  0.3228E-01  0.1081E+00  0.9940E-01
     14.812  0.2515E-02  0.2632E-01  0.1086E+00  0.1043E+00
     14.999  0.5475E-02  0.6346E-02  0.1096E+00  0.1055E+00
     15.186  0.3042E-02  0.5945E-02  0.1102E+00  0.1066E+00
     15.373  0.2872E-02  0.3030E-02  0.1107E+00  0.1072E+00
     15.559  0.9646E-03  0.2643E-02  0.1109E+00  0.1077E+00
     15.746  0.2285E-02  0.2156E-02  0.1113E+00  0.1081E+00
     15.933  0.1325E-02  0.4018E-02  0.1116E+00  0.1088E+00
     16.120  0.2500E-02  0.2441E-02  0.1120E+00  0.1093E+00
     16.307  0.1396E-02  0.3391E-02  0.1123E+00  0.1099E+00
     16.494  0.1900E-02  0.4199E-02  0.1127E+00  0.1107E+00
     16.681  0.2745E-02  0.2399E-02  0.1132E+00  0.1112E+00
     16.868  0.1779E-02  0.2711E-02  0.1135E+00  0.1117E+00
     17.055  0.2700E-02  0.2295E-02  0.1140E+00  0.1121E+00
     17.241  0.2200E-03  0.1131E-02  0.1140E+00  0.1123E+00
     17.428  0.2553E-02  0.2631E-02  0.1145E+00  0.1128E+00
     17.615  0.1986E-02  0.2756E-02  0.1149E+00  0.1133E+00
     17.802  0.4396E-02  0.6115E-03  0.1157E+00  0.1134E+00
     17.989  0.1370E-02  0.2993E-02  0.1160E+00  0.1140E+00
     18.176  0.5602E-03  0.1561E-02  0.1161E+00  0.1143E+00
     18.363  0.2403E-02  0.2783E-02  0.1165E+00  0.1148E+00
     18.550  0.2860E-02  0.3434E-02  0.1171E+00  0.1154E+00
     18.737  0.6547E-03  0.2811E-02  0.1172E+00  0.1160E+00
     18.923  0.1301E-02  0.3179E-03  0.1174E+00  0.1160E+00
     19.110  0.9035E-03  0.1263E-02  0.1176E+00  0.1163E+00
     19.297  0.1285E-02  0.3061E-02  0.1178E+00  0.1168E+00
     19.484  0.4552E-03  0.2650E-02  0.1179E+00  0.1173E+00
     19.671  0.1799E-02  0.6233E-03  0.1183E+00  0.1174E+00
     19.858  0.3702E-02  0.1453E-02  0.1189E+00  0.1177E+00
     20.045  0.2685E-02  0.9881E-03  0.1195E+00  0.1179E+00
     20.232  0.6497E-03  0.2964E-03  0.1196E+00  0.1179E+00
     20.419  0.5278E-03  0.2217E-02  0.1197E+00  0.1184E+00
     20.605  0.4531E-06  0.3997E-02  0.1197E+00  0.1191E+00
     20.792  0.1885E-03  0.2248E-02  0.1197E+00  0.1195E+00
     20.979  0.5979E-03  0.3420E-03  0.1198E+00  0.1196E+00
     21.166  0.7898E-03  0.4051E-03  0.1200E+00  0.1197E+00
     21.353  0.2536E-05  0.7746E-08  0.1200E+00  0.1197E+00
     21.540  0.2521E-03  0.2874E-03  0.1200E+00  0.1197E+00
     21.727  0.9872E-03  0.1253E-02  0.1202E+00  0.1200E+00
     21.914  0.1382E-02  0.3835E-04  0.1205E+00  0.1200E+00
     22.101  0.8517E-03  0.1073E-09  0.1206E+00  0.1200E+00
     22.287  0.1171E-02  0.1768E-03  0.1208E+00  0.1200E+00
     22.474  0.4140E-02  0.4979E-03  0.1216E+00  0.1201E+00
     22.661  0.3716E-02  0.2110E-02  0.1223E+00  0.1205E+00
     22.848  0.4804E-02  0.1183E-02  0.1232E+00  0.1207E+00
     23.035  0.3606E-02  0.3654E-02  0.1239E+00  0.1214E+00
     23.222  0.3910E-02  0.8236E-03  0.1246E+00  0.1215E+00
     23.409  0.2433E-02  0.3091E-02  0.1251E+00  0.1221E+00
     23.596  0.4193E-02  0.4597E-02  0.1258E+00  0.1230E+00
     23.783  0.3964E-02  0.5515E-02  0.1266E+00  0.1240E+00
     23.970  0.9963E-03  0.4027E-02  0.1268E+00  0.1248E+00
     24.156  0.2424E-02  0.2599E-02  0.1272E+00  0.1252E+00
     24.343  0.3492E-02  0.4348E-02  0.1279E+00  0.1261E+00
     24.530  0.1896E-02  0.3565E-02  0.1282E+00  0.1267E+00
     24.717  0.2539E-02  0.1604E-02  0.1287E+00  0.1270E+00
     24.904  0.2486E-02  0.3520E-02  0.1292E+00  0.1277E+00
     25.091  0.3503E-02  0.2118E-02  0.1298E+00  0.1281E+00
     25.278  0.3859E-02  0.3003E-02  0.1305E+00  0.1286E+00
     25.465  0.3308E-02  0.2436E-02  0.1312E+00  0.1291E+00
     25.652  0.5753E-02  0.2741E-02  0.1322E+00  0.1296E+00
     25.838  0.1717E-02  0.4737E-02  0.1326E+00  0.1305E+00
     26.025  0.3610E-02  0.4027E-02  0.1332E+00  0.1312E+00
     26.212  0.5612E-02  0.5214E-02  0.1343E+00  0.1322E+00
     26.399  0.2149E-02  0.2378E-02  0.1347E+00  0.1327E+00
     26.586  0.3417E-02  0.3512E-02  0.1353E+00  0.1333E+00
     26.773  0.1135E-02  0.5817E-02  0.1355E+00  0.1344E+00
     26.960  0.3036E-02  0.2822E-02  0.1361E+00  0.1349E+00
     27.147  0.4142E-02  0.2487E-02  0.1369E+00  0.1354E+00
     27.334  0.4102E-02  0.2474E-02  0.1376E+00  0.1359E+00
     27.520  0.1983E-02  0.3329E-02  0.1380E+00  0.1365E+00
     27.707  0.1599E-02  0.2643E-02  0.1383E+00  0.1370E+00
     27.894  0.2322E-02  0.4175E-02  0.1387E+00  0.1378E+00
     28.081  0.3260E-02  0.2109E-02  0.1394E+00  0.1382E+00
     28.268  0.2122E-02  0.1718E-02  0.1398E+00  0.1385E+00
     28.455  0.2054E-02  0.3347E-02  0.1401E+00  0.1391E+00
     28.642  0.5030E-02  0.2413E-02  0.1411E+00  0.1396E+00
     28.829  0.2400E-02  0.1961E-02  0.1415E+00  0.1399E+00
     29.016  0.2424E-02  0.3042E-02  0.1420E+00  0.1405E+00
     29.202  0.1896E-02  0.5291E-02  0.1423E+00  0.1415E+00
     29.389  0.4422E-02  0.5665E-03  0.1432E+00  0.1416E+00
     29.576  0.4099E-02  0.3662E-02  0.1439E+00  0.1423E+00
     29.763  0.2504E-02  0.4375E-02  0.1444E+00  0.1431E+00
     29.950  0.2297E-02  0.2702E-02  0.1448E+00  0.1436E+00
     30.137  0.3829E-02  0.3807E-02  0.1455E+00  0.1443E+00
     30.324  0.2348E-02  0.2024E-02  0.1460E+00  0.1447E+00
     30.511  0.2469E-02  0.4229E-02  0.1464E+00  0.1455E+00
     30.698  0.6023E-02  0.2096E-02  0.1476E+00  0.1459E+00
     30.884  0.5551E-02  0.3418E-02  0.1486E+00  0.1465E+00
     31.071  0.5495E-02  0.6086E-02  0.1496E+00  0.1476E+00
     31.258  0.3380E-02  0.5513E-02  0.1503E+00  0.1487E+00
     31.445  0.2291E-02  0.4847E-02  0.1507E+00  0.1496E+00
     31.632  0.2158E-02  0.3306E-02  0.1511E+00  0.1502E+00
     31.819  0.5077E-02  0.2431E-02  0.1520E+00  0.1506E+00
     32.006  0.3966E-02  0.3216E-02  0.1528E+00  0.1512E+00
     32.193  0.3801E-02  0.4880E-02  0.1535E+00  0.1522E+00
     32.380  0.3780E-02  0.5993E-02  0.1542E+00  0.1533E+00
     32.566  0.4092E-02  0.1544E-02  0.1550E+00  0.1536E+00
     32.753  0.4936E-02  0.4850E-02  0.1559E+00  0.1545E+00
     32.940  0.3130E-02  0.3096E-02  0.1565E+00  0.1551E+00
     33.127  0.6231E-02  0.5284E-02  0.1576E+00  0.1560E+00
     33.314  0.2531E-02  0.5215E-02  0.1581E+00  0.1570E+00
     33.501  0.3526E-02  0.5192E-02  0.1588E+00  0.1580E+00
     33.688  0.2951E-02  0.2071E-02  0.1593E+00  0.1584E+00
     33.875  0.3562E-02  0.3411E-02  0.1600E+00  0.1590E+00
     34.062  0.2978E-02  0.4110E-02  0.1605E+00  0.1598E+00
     34.248  0.5500E-02  0.3008E-02  0.1616E+00  0.1603E+00
     34.435  0.3775E-02  0.2659E-02  0.1623E+00  0.1608E+00
     34.622  0.4621E-02  0.6858E-02  0.1631E+00  0.1621E+00
     34.809  0.2975E-02  0.3718E-02  0.1637E+00  0.1628E+00
     34.996  0.5012E-02  0.3335E-02  0.1646E+00  0.1634E+00
     35.183  0.2139E-02  0.5026E-02  0.1650E+00  0.1644E+00
     35.370  0.4497E-02  0.3792E-02  0.1659E+00  0.1651E+00
     35.557  0.6707E-02  0.3315E-02  0.1671E+00  0.1657E+00
     35.744  0.3207E-02  0.5853E-02  0.1677E+00  0.1668E+00
     35.930  0.4207E-02  0.4658E-02  0.1685E+00  0.1677E+00
     36.117  0.3166E-02  0.3504E-02  0.1691E+00  0.1683E+00
     36.304  0.3413E-02  0.3822E-02  0.1697E+00  0.1690E+00
     36.491  0.2683E-02  0.3462E-02  0.1702E+00  0.1697E+00
     36.678  0.3274E-02  0.3319E-02  0.1709E+00  0.1703E+00
     36.865  0.3802E-02  0.3361E-02  0.1716E+00  0.1709E+00
     37.052  0.3635E-02  0.3204E-02  0.1722E+00  0.1715E+00
     37.239  0.4603E-02  0.3855E-02  0.1731E+00  0.1723E+00
     37.426  0.3324E-02  0.4057E-02  0.1737E+00  0.1730E+00
     37.612  0.4612E-02  0.4125E-02  0.1746E+00  0.1738E+00
     37.799  0.3838E-02  0.3931E-02  0.1753E+00  0.1745E+00
     37.986  0.4360E-02  0.4796E-02  0.1761E+00  0.1754E+00
     38.173  0.3140E-02  0.2448E-02  0.1767E+00  0.1759E+00
     38.360  0.3533E-02  0.4212E-02  0.1774E+00  0.1767E+00
     38.547  0.5368E-02  0.3657E-02  0.1784E+00  0.1773E+00
     38.734  0.1967E-02  0.5953E-02  0.1787E+00  0.1785E+00
     38.921  0.1984E-02  0.1928E-02  0.1791E+00  0.1788E+00
     39.108  0.3458E-02  0.1908E-02  0.1798E+00  0.1792E+00
     39.295  0.4825E-02  0.1649E-02  0.1807E+00  0.1795E+00
     39.481  0.1368E-02  0.3574E-02  0.1809E+00  0.1801E+00
     39.668  0.4521E-02  0.4039E-02  0.1818E+00  0.1809E+00
     39.855  0.3316E-02  0.3454E-02  0.1824E+00  0.1815E+00
     40.042  0.4197E-02  0.4282E-02  0.1832E+00  0.1823E+00
     40.229  0.2588E-02  0.3216E-02  0.1836E+00  0.1829E+00
     40.416  0.5659E-02  0.3125E-02  0.1847E+00  0.1835E+00
     40.603  0.5461E-02  0.5708E-02  0.1857E+00  0.1846E+00
     40.790  0.5960E-02  0.5714E-02  0.1868E+00  0.1857E+00
     40.977  0.4880E-02  0.4385E-02  0.1877E+00  0.1865E+00
     41.163  0.5779E-02  0.4176E-02  0.1888E+00  0.1873E+00
     41.350  0.5139E-02  0.5805E-02  0.1898E+00  0.1884E+00
     41.537  0.2971E-02  0.5901E-02  0.1903E+00  0.1895E+00
     41.724  0.2666E-02  0.3114E-02  0.1908E+00  0.1900E+00
     41.911  0.4185E-02  0.4438E-02  0.1916E+00  0.1909E+00
     42.098  0.2533E-02  0.1902E-02  0.1921E+00  0.1912E+00
     42.285  0.4104E-02  0.5257E-02  0.1929E+00  0.1922E+00
     42.472  0.5490E-03  0.2570E-02  0.1930E+00  0.1927E+00
     42.659  0.4023E-02  0.1645E-02  0.1937E+00  0.1930E+00
     42.845  0.4396E-02  0.2280E-02  0.1945E+00  0.1934E+00
     43.032  0.3547E-02  0.6482E-02  0.1952E+00  0.1946E+00
     43.219  0.3904E-02  0.3295E-02  0.1959E+00  0.1952E+00
     43.406  0.1706E-02  0.3131E-02  0.1962E+00  0.1958E+00
     43.593  0.3537E-02  0.2394E-02  0.1969E+00  0.1963E+00
     43.780  0.4490E-02  0.2891E-02  0.1977E+00  0.1968E+00
     43.967  0.4155E-02  0.3538E-02  0.1985E+00  0.1975E+00
     44.154  0.3597E-02  0.5350E-02  0.1992E+00  0.1985E+00
     44.341  0.2466E-02  0.2319E-02  0.1997E+00  0.1989E+00
     44.527  0.4324E-02  0.1886E-02  0.2005E+00  0.1993E+00
     44.714  0.4718E-02  0.2644E-02  0.2013E+00  0.1998E+00
     44.901  0.5316E-02  0.6589E-02  0.2023E+00  0.2010E+00
     45.088  0.4974E-02  0.5895E-02  0.2033E+00  0.2021E+00
     45.275  0.2413E-02  0.5569E-02  0.2037E+00  0.2031E+00
     45.462  0.5660E-02  0.2722E-02  0.2048E+00  0.2036E+00
     45.649  0.4070E-02  0.4820E-02  0.2055E+00  0.2045E+00
     45.836  0.5292E-02  0.4978E-02  0.2065E+00  0.2055E+00
     46.023  0.5235E-02  0.4900E-02  0.2075E+00  0.2064E+00
     46.209  0.1227E-02  0.2542E-02  0.2077E+00  0.2069E+00
     46.396  0.4197E-02  0.5309E-02  0.2085E+00  0.2079E+00
     46.583  0.1660E-02  0.3363E-02  0.2088E+00  0.2085E+00
     46.770  0.3709E-02  0.1062E-02  0.2095E+00  0.2087E+00
     46.957  0.8658E-02  0.4798E-02  0.2111E+00  0.2096E+00
     47.144  0.4058E-02  0.4388E-02  0.2119E+00  0.2104E+00
     47.331  0.6258E-02  0.4848E-02  0.2131E+00  0.2113E+00
     47.518  0.4728E-02  0.5512E-02  0.2140E+00  0.2123E+00
     47.705  0.4496E-02  0.5349E-02  0.2148E+00  0.2133E+00
     47.891  0.3601E-02  0.6034E-02  0.2155E+00  0.2145E+00
     48.078  0.5305E-02  0.3852E-02  0.2165E+00  0.2152E+00
     48.265  0.3292E-02  0.2099E-02  0.2171E+00  0.2156E+00
     48.452  0.5052E-02  0.5197E-02  0.2180E+00  0.2165E+00
     48.639  0.1207E-02  0.5215E-02  0.2182E+00  0.2175E+00
     48.826  0.3740E-02  0.2473E-02  0.2189E+00  0.2180E+00
     49.013  0.7678E-02  0.1681E-02  0.2204E+00  0.2183E+00
     49.200  0.1123E-01  0.1890E-02  0.2225E+00  0.2187E+00
     49.387  0.1086E-01  0.4909E-02  0.2245E+00  0.2196E+00
     49.573  0.1556E-01  0.3885E-02  0.2274E+00  0.2203E+00
     49.760  0.2884E-01  0.5949E-02  0.2328E+00  0.2214E+00
     49.947  0.7567E-02  0.4508E-02  0.2342E+00  0.2222E+00
     50.134  0.7830E-02  0.4126E-02  0.2357E+00  0.2230E+00
     50.321  0.1150E-01  0.4195E-02  0.2378E+00  0.2238E+00
     50.508  0.1623E-02  0.5950E-02  0.2381E+00  0.2249E+00
     50.695  0.2653E-02  0.5924E-02  0.2386E+00  0.2260E+00
     50.882  0.2283E-02  0.5823E-02  0.2391E+00  0.2271E+00
     51.069  0.3267E-04  0.6862E-02  0.2391E+00  0.2284E+00
     51.255  0.1070E-02  0.5199E-02  0.2393E+00  0.2294E+00
     51.442  0.6124E-03  0.5391E-02  0.2394E+00  0.2304E+00
     51.629  0.1265E-02  0.2778E-02  0.2396E+00  0.2309E+00
     51.816  0.4895E-03  0.2024E-02  0.2397E+00  0.2313E+00
     52.003  0.6146E-07  0.3591E-02  0.2397E+00  0.2319E+00
     52.190  0.2208E-03  0.4316E-02  0.2397E+00  0.2327E+00
     52.377  0.3366E-03  0.5136E-02  0.2398E+00  0.2337E+00
     52.564  0.1421E-09  0.5235E-02  0.2398E+00  0.2347E+00
     52.751  0.1822E-04  0.4822E-02  0.2398E+00  0.2356E+00
     52.938  0.5583E-03  0.6269E-02  0.2399E+00  0.2368E+00
     53.124  0.2595E-03  0.9232E-02  0.2400E+00  0.2385E+00
     53.311  0.1979E-07  0.3416E-02  0.2400E+00  0.2391E+00
     53.498  0.0000E+00  0.2770E-02  0.2400E+00  0.2396E+00
     53.685  0.0000E+00  0.9169E-03  0.2400E+00  0.2398E+00
     53.872  0.1117E-13  0.2706E-03  0.2400E+00  0.2399E+00
     54.059  0.2313E-04  0.5509E-03  0.2400E+00  0.2400E+00
     54.246  0.1627E-03  0.1810E-03  0.2400E+00  0.2400E+00
     54.433  0.3324E-08  0.7139E-07  0.2400E+00  0.2400E+00
     54.620  0.0000E+00  0.0000E+00  0.2400E+00  0.2400E+00
     54.806  0.0000E+00  0.0000E+00  0.2400E+00  0.2400E+00
     54.993  0.0000E+00  0.0000E+00  0.2400E+00  0.2400E+00
     55.180  0.0000E+00  0.0000E+00  0.2400E+00  0.2400E+00
     55.367  0.0000E+00  0.0000E+00  0.2400E+00  0.2400E+00
     55.554  0.0000E+00  0.0000E+00  0.2400E+00  0.2400E+00
     55.741  0.0000E+00  0.0000E+00  0.2400E+00  0.2400E+00
     55.928  0.0000E+00  0.0000E+00  0.2400E+00  0.2400E+00
     56.115  0.0000E+00  0.0000E+00  0.2400E+00  0.2400E+00
     56.302  0.0000E+00  0.0000E+00  0.2400E+00  0.2400E+00
     56.488  0.0000E+00  0.0000E+00  0.2400E+00  0.2400E+00
     56.675  0.0000E+00  0.0000E+00  0.2400E+00  0.2400E+00
     56.67531237      0.60821459  301     13.21618570      1.00000000
      0.608  0.0000E+00  0.0000E+00  0.0000E+00  0.0000E+00  0.0000E+00  0.0000E+00  0.0000E+00  0.0000E+00  0.0000E+00  0.0000E+00  0.0000E+00  0.0000E+00  0.0000E+00  0.0000E+00  0.0000E+00  0.0000E+00  0.0000E+00  0.0000E+00
      0.795  0.0000E+00  0.0000E+00  0.0000E+00  0.0000E+00  0.0000E+00  0.0000E+00  0.0000E+00  0.0000E+00  0.0000E+00  0.0000E+00  0.0000E+00  0.0000E+00  0.0000E+00  0.0000E+00  0.0000E+00  0.0000E+00  0.0000E+00  0.0000E+00
      0.982  0.0000E+00  0.0000E+00  0.0000E+00  0.0000E+00  0.0000E+00  0.0000E+00  0.0000E+00  0.0000E+00  0.0000E+00  0.0000E+00  0.0000E+00  0.0000E+00  0.0000E+00  0.0000E+00  0.0000E+00  0.0000E+00  0.0000E+00  0.0000E+00
      1.169  0.0000E+00  0.0000E+00  0.0000E+00  0.0000E+00  0.0000E+00  0.0000E+00  0.0000E+00  0.0000E+00  0.0000E+00  0.0000E+00  0.0000E+00  0.0000E+00  0.0000E+00  0.0000E+00  0.0000E+00  0.0000E+00  0.0000E+00  0.0000E+00
      1.356  0.0000E+00  0.0000E+00  0.0000E+00  0.0000E+00  0.0000E+00  0.0000E+00  0.0000E+00  0.0000E+00  0.0000E+00  0.0000E+00  0.0000E+00  0.0000E+00  0.0000E+00  0.0000E+00  0.0000E+00  0.0000E+00  0.0000E+00  0.0000E+00
      1.543  0.0000E+00  0.0000E+00  0.0000E+00  0.0000E+00  0.0000E+00  0.0000E+00  0.0000E+00  0.0000E+00  0.0000E+00  0.0000E+00  0.0000E+00  0.0000E+00  0.0000E+00  0.0000E+00  0.0000E+00  0.0000E+00  0.0000E+00  0.0000E+00
      1.730  0.0000E+00  0.0000E+00  0.0000E+00  0.0000E+00  0.0000E+00  0.0000E+00  0.0000E+00  0.0000E+00  0.0000E+00  0.0000E+00  0.0000E+00  0.0000E+00  0.0000E+00  0.0000E+00  0.0000E+00  0.0000E+00  0.0000E+00  0.0000E+00
      1.916  0.0000E+00  0.0000E+00  0.0000E+00  0.0000E+00  0.0000E+00  0.0000E+00  0.0000E+00  0.0000E+00  0.0000E+00  0.0000E+00  0.0000E+00  0.0000E+00  0.0000E+00  0.0000E+00  0.0000E+00  0.0000E+00  0.0000E+00  0.0000E+00
      2.103  0.0000E+00  0.0000E+00  0.0000E+00  0.0000E+00  0.0000E+00  0.0000E+00  0.0000E+00  0.0000E+00  0.0000E+00  0.0000E+00  0.0000E+00  0.0000E+00  0.0000E+00  0.0000E+00  0.0000E+00  0.0000E+00  0.0000E+00  0.0000E+00
      2.290  0.0000E+00  0.0000E+00  0.0000E+00  0.0000E+00  0.0000E+00  0.0000E+00  0.0000E+00  0.0000E+00  0.0000E+00  0.0000E+00  0.0000E+00  0.0000E+00  0.0000E+00  0.0000E+00  0.0000E+00  0.0000E+00  0.0000E+00  0.0000E+00
      2.477  0.0000E+00  0.0000E+00  0.0000E+00  0.0000E+00  0.0000E+00  0.0000E+00  0.0000E+00  0.0000E+00  0.0000E+00  0.0000E+00  0.0000E+00  0.0000E+00  0.0000E+00  0.0000E+00  0.0000E+00  0.0000E+00  0.0000E+00  0.0000E+00
      2.664  0.0000E+00  0.0000E+00  0.0000E+00  0.0000E+00  0.0000E+00  0.0000E+00  0.0000E+00  0.0000E+00  0.0000E+00  0.0000E+00  0.0000E+00  0.0000E+00  0.0000E+00  0.0000E+00  0.0000E+00  0.0000E+00  0.0000E+00  0.0000E+00
      2.851  0.0000E+00  0.0000E+00  0.0000E+00  0.0000E+00  0.0000E+00  0.0000E+00  0.0000E+00  0.0000E+00  0.0000E+00  0.0000E+00  0.0000E+00  0.0000E+00  0.0000E+00  0.0000E+00  0.0000E+00  0.0000E+00  0.0000E+00  0.0000E+00
      3.038  0.8095E-06  0.3654E-07  0.2663E-22  0.6740E-22  0.1729E-21  0.6407E-22  0.2663E-22  0.6740E-22  0.2447E-19  0.3430E-21  0.1047E-24  0.1524E-25  0.2620E-11  0.1257E-12  0.1047E-24  0.1524E-25  0.2447E-19  0.3430E-21
      3.225  0.2050E-02  0.1851E-02  0.1254E-12  0.5793E-15  0.3812E-07  0.1666E-08  0.1254E-12  0.5793E-15  0.2192E-14  0.2517E-16  0.3131E-21  0.7828E-21  0.7094E-08  0.6384E-08  0.3131E-21  0.7828E-21  0.2192E-14  0.2517E-16
      3.412  0.6889E-02  0.4688E-02  0.3645E-04  0.9463E-05  0.6890E-04  0.6300E-04  0.3645E-04  0.9463E-05  0.6192E-06  0.1281E-06  0.3321E-13  0.1148E-15  0.1414E-05  0.7070E-06  0.3321E-13  0.1148E-15  0.6192E-06  0.1281E-06
      3.598  0.1661E-01  0.1407E-01  0.2171E-03  0.1786E-03  0.1216E-03  0.4128E-04  0.2171E-03  0.1786E-03  0.3750E-05  0.2429E-05  0.3755E-05  0.8401E-06  0.1996E-05  0.2039E-05  0.3755E-05  0.8401E-06  0.3750E-05  0.2429E-05
      3.785  0.1725E-01  0.2241E-01  0.2272E-03  0.2961E-03  0.2977E-03  0.3859E-03  0.2272E-03  0.2961E-03  0.4014E-05  0.4134E-05  0.9259E-05  0.9724E-05  0.1567E-06  0.4117E-07  0.9259E-05  0.9724E-05  0.4014E-05  0.4134E-05
      3.972  0.8259E-02  0.5013E-02  0.1733E-03  0.4757E-04  0.2655E-03  0.2617E-03  0.1733E-03  0.4757E-04  0.8883E-05  0.1926E-05  0.5939E-10  0.5570E-09  0.2565E-04  0.1522E-04  0.5939E-10  0.5570E-09  0.8883E-05  0.1926E-05
      4.159  0.3553E-01  0.2177E-01  0.1004E-02  0.6832E-03  0.1301E-02  0.5603E-03  0.1004E-02  0.6832E-03  0.4639E-04  0.2563E-04  0.5997E-04  0.1890E-04  0.6770E-04  0.3204E-04  0.5997E-04  0.1890E-04  0.4639E-04  0.2563E-04
      4.346  0.2967E-01  0.4607E-01  0.1148E-02  0.1562E-02  0.6973E-03  0.1456E-02  0.1148E-02  0.1562E-02  0.7833E-04  0.7300E-04  0.3899E-04  0.5814E-04  0.6417E-04  0.7231E-04  0.3899E-04  0.5814E-04  0.7833E-04  0.7300E-04
      4.533  0.2153E-01  0.2254E-01  0.1142E-02  0.1205E-02  0.3781E-03  0.3903E-03  0.1142E-02  0.1205E-02  0.1029E-03  0.8115E-04  0.6221E-04  0.4886E-04  0.3599E-04  0.2884E-04  0.6221E-04  0.4886E-04  0.1029E-03  0.8115E-04
      4.720  0.2334E-01  0.1653E-01  0.8494E-03  0.6546E-03  0.1846E-02  0.1212E-02  0.8494E-03  0.6546E-03  0.5361E-04  0.3139E-04  0.1746E-03  0.1012E-03  0.9340E-04  0.2196E-04  0.1746E-03  0.1012E-03  0.5361E-04  0.3139E-04
      4.907  0.1696E-01  0.1175E-01  0.7737E-03  0.3919E-03  0.1440E-02  0.1088E-02  0.7737E-03  0.3919E-03  0.8228E-04  0.2301E-04  0.1808E-03  0.6386E-04  0.9053E-04  0.7516E-04  0.1808E-03  0.6386E-04  0.8228E-04  0.2301E-04
      5.094  0.5025E-01  0.5792E-01  0.2907E-02  0.3079E-02  0.3521E-02  0.4584E-02  0.2907E-02  0.3079E-02  0.3955E-03  0.2868E-03  0.2225E-03  0.2648E-03  0.7613E-03  0.5556E-03  0.2225E-03  0.2648E-03  0.3955E-03  0.2868E-03
      5.280  0.3743E-01  0.4271E-01  0.3525E-02  0.4066E-02  0.6583E-03  0.7464E-03  0.3525E-02  0.4066E-02  0.5687E-03  0.4804E-03  0.2563E-03  0.1992E-03  0.2993E-03  0.2551E-03  0.2563E-03  0.1992E-03  0.5687E-03  0.4804E-03
      5.467  0.2476E-01  0.5432E-02  0.1646E-02  0.3324E-03  0.2698E-02  0.6500E-03  0.1646E-02  0.3324E-03  0.3465E-03  0.3832E-04  0.3541E-03  0.6530E-04  0.4311E-03  0.6282E-04  0.3541E-03  0.6530E-04  0.3465E-03  0.3832E-04
      5.654  0.7215E-01  0.5140E-01  0.6608E-02  0.4518E-02  0.5431E-02  0.4065E-02  0.6608E-02  0.4518E-02  0.1574E-02  0.7286E-03  0.1754E-02  0.6987E-03  0.6881E-03  0.4388E-03  0.1754E-02  0.6987E-03  0.1574E-02  0.7286E-03
      5.841  0.1011E-01  0.5234E-01  0.4411E-03  0.4290E-02  0.1808E-02  0.5451E-02  0.4411E-03  0.4290E-02  0.7598E-04  0.6572E-03  0.2358E-03  0.9524E-03  0.5239E-03  0.6011E-03  0.2358E-03  0.9524E-03  0.7598E-04  0.6572E-03
      6.028  0.3421E-01  0.8473E-02  0.2194E-02  0.3423E-03  0.5597E-02  0.1870E-02  0.2194E-02  0.3423E-03  0.8431E-03  0.6958E-04  0.1033E-02  0.1193E-03  0.2781E-02  0.6486E-03  0.1033E-02  0.1193E-03  0.8431E-03  0.6958E-04
      6.215  0.2815E-01  0.3179E-01  0.3950E-02  0.2745E-02  0.1918E-02  0.4407E-02  0.3950E-02  0.2745E-02  0.1206E-02  0.6458E-03  0.9798E-03  0.6279E-03  0.7020E-03  0.1397E-02  0.9798E-03  0.6279E-03  0.1206E-02  0.6458E-03
      6.402  0.9076E-01  0.5984E-01  0.1192E-01  0.8221E-02  0.8320E-02  0.5247E-02  0.1192E-01  0.8221E-02  0.5272E-02  0.1839E-02  0.3345E-02  0.1770E-02  0.4189E-02  0.9072E-03  0.3345E-02  0.1770E-02  0.5272E-02  0.1839E-02
      6.589  0.5905E-01  0.6249E-01  0.6840E-02  0.8517E-02  0.9046E-02  0.6187E-02  0.6840E-02  0.8517E-02  0.3609E-02  0.2650E-02  0.5459E-02  0.1329E-02  0.3950E-02  0.2549E-02  0.5459E-02  0.1329E-02  0.3609E-02  0.2650E-02
      6.776  0.4749E-01  0.4808E-01  0.6622E-02  0.5655E-02  0.4129E-02  0.8474E-02  0.6622E-02  0.5655E-02  0.7156E-02  0.1573E-02  0.3472E-02  0.2989E-02  0.7974E-02  0.1396E-02  0.3472E-02  0.2989E-02  0.7156E-02  0.1573E-02
      6.962  0.2601E-01  0.4261E-01  0.3019E-02  0.7158E-02  0.4102E-02  0.2983E-02  0.3019E-02  0.7158E-02  0.4178E-02  0.3659E-02  0.5412E-02  0.2224E-02  0.5414E-02  0.2224E-02  0.5412E-02  0.2224E-02  0.4178E-02  0.3659E-02
      7.149  0.8725E-01  0.2562E-01  0.9120E-02  0.2556E-02  0.1540E-01  0.5186E-02  0.9120E-02  0.2556E-02  0.2542E-01  0.1743E-02  0.3877E-01  0.5924E-03  0.1941E-01  0.6320E-02  0.3877E-01  0.5924E-03  0.2542E-01  0.1743E-02
      7.336  0.1393E+00  0.6646E-01  0.2010E-01  0.9387E-02  0.1190E-01  0.1411E-01  0.2010E-01  0.9387E-02  0.6680E-01  0.4893E-02  0.6712E-01  0.9058E-02  0.7563E-01  0.1776E-02  0.6712E-01  0.9058E-02  0.6680E-01  0.4893E-02
      7.523  0.9056E-01  0.3588E-01  0.1433E-01  0.4649E-02  0.1425E-01  0.9338E-02  0.1433E-01  0.4649E-02  0.5866E-01  0.2760E-02  0.7095E-01  0.4901E-02  0.2671E-01  0.4366E-02  0.7095E-01  0.4901E-02  0.5866E-01  0.2760E-02
      7.710  0.7501E-01  0.8334E-01  0.1254E-01  0.1814E-01  0.1161E-01  0.8455E-02  0.1254E-01  0.1814E-01  0.1087E+00  0.1419E-01  0.8562E-01  0.6248E-02  0.1065E+00  0.1318E-01  0.8562E-01  0.6248E-02  0.1087E+00  0.1419E-01
      7.897  0.7150E-01  0.7944E-01  0.1200E-01  0.1486E-01  0.2398E-01  0.7565E-02  0.1200E-01  0.1486E-01  0.7848E-01  0.2121E-01  0.7694E-01  0.1847E-01  0.6179E-01  0.2336E-01  0.7694E-01  0.1847E-01  0.7848E-01  0.2121E-01
      8.084  0.6258E-01  0.8357E-01  0.2091E-01  0.1186E-01  0.2173E-01  0.1393E-01  0.2091E-01  0.1186E-01  0.1261E+00  0.3413E-01  0.1956E+00  0.4588E-01  0.1348E+00  0.1931E-01  0.1956E+00  0.4588E-01  0.1261E+00  0.3413E-01
      8.271  0.5080E-01  0.8873E-01  0.1992E-01  0.1082E-01  0.1894E-01  0.1975E-01  0.1992E-01  0.1082E-01  0.9934E-01  0.3862E-01  0.8966E-01  0.5420E-01  0.1310E+00  0.4811E-01  0.8966E-01  0.5420E-01  0.9934E-01  0.3862E-01
      8.458  0.2750E-01  0.6213E-01  0.1839E-01  0.1103E-01  0.2116E-01  0.1248E-01  0.1839E-01  0.1103E-01  0.7993E-01  0.3976E-01  0.1143E+00  0.4456E-01  0.7931E-01  0.3495E-01  0.1143E+00  0.4456E-01  0.7993E-01  0.3976E-01
      8.644  0.2847E-01  0.9174E-01  0.2636E-01  0.2048E-01  0.1758E-01  0.2044E-01  0.2636E-01  0.2048E-01  0.1004E+00  0.7729E-01  0.9859E-01  0.7965E-01  0.1467E+00  0.6237E-01  0.9859E-01  0.7965E-01  0.1004E+00  0.7729E-01
      8.831  0.1684E-01  0.5836E-01  0.2028E-01  0.1818E-01  0.1767E-01  0.1390E-01  0.2028E-01  0.1818E-01  0.1076E+00  0.8409E-01  0.1010E+00  0.4765E-01  0.1771E+00  0.5246E-01  0.1010E+00  0.4765E-01  0.1076E+00  0.8409E-01
      9.018  0.1228E-01  0.5227E-01  0.2641E-01  0.1686E-01  0.1844E-01  0.2327E-01  0.2641E-01  0.1686E-01  0.1646E+00  0.7575E-01  0.8999E-01  0.1034E+00  0.1759E+00  0.8307E-01  0.8999E-01  0.1034E+00  0.1646E+00  0.7575E-01
      9.205  0.9549E-02  0.3846E-01  0.2326E-01  0.1902E-01  0.1304E-01  0.2602E-01  0.2326E-01  0.1902E-01  0.1466E+00  0.8858E-01  0.7834E-01  0.1526E+00  0.1381E+00  0.9280E-01  0.7834E-01  0.1526E+00  0.1466E+00  0.8858E-01
      9.392  0.1402E-01  0.2709E-01  0.2916E-01  0.1648E-01  0.2383E-01  0.2639E-01  0.2916E-01  0.1648E-01  0.1870E+00  0.5390E-01  0.1054E+00  0.1162E+00  0.1700E+00  0.6337E-01  0.1054E+00  0.1162E+00  0.1870E+00  0.5390E-01
      9.579  0.1211E-01  0.1867E-01  0.2506E-01  0.2643E-01  0.1976E-01  0.1170E-01  0.2506E-01  0.2643E-01  0.1488E+00  0.8670E-01  0.7427E-01  0.5973E-01  0.1136E+00  0.9827E-01  0.7427E-01  0.5973E-01  0.1488E+00  0.8670E-01
      9.766  0.4439E-02  0.1210E-01  0.9131E-02  0.2095E-01  0.1027E-01  0.2058E-01  0.9131E-02  0.2095E-01  0.8476E-01  0.8743E-01  0.2824E-01  0.6863E-01  0.7964E-01  0.1096E+00  0.2824E-01  0.6863E-01  0.8476E-01  0.8743E-01
      9.953  0.5273E-02  0.1180E-01  0.1637E-01  0.2847E-01  0.2309E-01  0.1200E-01  0.1637E-01  0.2847E-01  0.9867E-01  0.9865E-01  0.1587E+00  0.6650E-01  0.1768E+00  0.1504E+00  0.1587E+00  0.6650E-01  0.9867E-01  0.9865E-01