    2    2  100    2
  0.8980893E+01  0.2342739E-09  0.2342739E-09  0.3778949E-09  0.5000000E-15
  1.000000000000000E-004
  CAR 
 Co-hcc                                  
     18     95     24
 
  0.0000000E+00  0.0000000E+00  0.0000000E+00  0.8680556E-03
      1          3.156719        3.184213   1.000000   1.000000
      2          7.094747        7.958062   1.000000   1.000000
      3         10.315674       11.802986   1.000000   1.000000
      4         10.331574       11.802988   1.000000   1.000000
      5         10.331574       11.806921   1.000000   1.000000
      6         10.765794       12.293678   1.000000   1.000000
      7         10.765794       12.293680   1.000000   1.000000
      8         11.226523       12.821416   1.000000   1.000000
      9         11.226523       12.821417   1.000000   1.000000
     10         12.710792       13.103529   1.000000   0.999280
     11         12.710792       14.423354   1.000000   0.000000
     12         13.110347       14.423354   0.998621   0.000000
     13         21.497859       22.467031   0.000000   0.000000
     14         36.737859       36.524882   0.000000   0.000000
     15         40.471417       40.371590   0.000000   0.000000
     16         40.760599       40.585644   0.000000   0.000000
     17         41.406162       41.766784   0.000000   0.000000
     18         41.406167       41.766793   0.000000   0.000000
     19         42.554073       42.867857   0.000000   0.000000
     20         42.554075       42.867871   0.000000   0.000000
     21         46.563075       46.557703   0.000000   0.000000
     22         46.563077       46.557710   0.000000   0.000000
     23         48.194080       47.937780   0.000000   0.000000
     24         48.730687       49.030750   0.000000   0.000000
 
  0.8333333E-01  0.0000000E+00  0.0000000E+00  0.5208333E-02
      1          3.438179        3.467072   1.000000   1.000000
      2          7.271465        8.152215   1.000000   1.000000
      3         10.012897       11.443893   1.000000   1.000000
      4         10.482193       11.964954   1.000000   1.000000
      5         10.579495       12.089191   1.000000   1.000000
      6         10.701712       12.157185   1.000000   1.000000
      7         10.898845       12.214230   1.000000   1.000000
      8         11.005503       12.436685   1.000000   1.000000
      9         11.128973       12.711324   1.000000   1.000000
     10         11.586309       12.770040   1.000000   1.000000
     11         12.754289       14.473245   1.000000   0.000000
     12         14.620176       15.568984   0.000000   0.000000
     13         21.524889       22.474601   0.000000   0.000000
     14         35.485114       35.516482   0.000000   0.000000
     15         38.230359       38.368505   0.000000   0.000000
     16         38.895629       39.238325   0.000000   0.000000
     17         40.805967       40.651553   0.000000   0.000000
     18         41.780664       41.804694   0.000000   0.000000
     19         43.155012       43.078163   0.000000   0.000000
     20         45.230381       45.538336   0.000000   0.000000
     21         45.972382       46.229992   0.000000   0.000000
     22         46.222030       46.272170   0.000000   0.000000
     23         48.315003       48.621442   0.000000   0.000000
     24         48.653669       48.929853   0.000000   0.000000
 
  0.1666667E+00  0.0000000E+00  0.0000000E+00  0.5208333E-02
      1          4.244812        4.282679   1.000000   1.000000
      2          7.703441        8.640803   1.000000   1.000000
      3          9.637382       10.985584   1.000000   1.000000
      4         10.033723       11.017726   1.000000   1.000000
      5         10.470292       11.931960   1.000000   1.000000
      6         10.889639       12.424261   1.000000   1.000000
      7         10.907630       12.442826   1.000000   1.000000
      8         10.985392       12.523168   1.000000   1.000000
      9         11.153201       12.560964   1.000000   1.000000
     10         11.272843       12.839545   1.000000   1.000000
     11         12.845834       14.577217   1.000000   0.000000
     12         16.532810       17.378331   0.000000   0.000000
     13         21.625477       22.513986   0.000000   0.000000
     14         31.852714       32.188112   0.000000   0.000000
     15         36.161208       36.486484   0.000000   0.000000
     16         37.088085       37.216101   0.000000   0.000000
     17         39.040864       39.078420   0.000000   0.000000
     18         40.948279       40.796759   0.000000   0.000000
     19         42.794206       42.859576   0.000000   0.000000
     20         45.608883       45.746171   0.000000   0.000000
     21         45.925135       46.383794   0.000000   0.000000
     22         47.104409       47.375479   0.000000   0.000000
     23         47.479113       47.750263   0.000000   0.000000
     24         49.128742       50.019199   0.000000   0.000000
 
  0.2500000E+00  0.4163336E-16  0.0000000E+00  0.5208333E-02
      1          5.435774        5.516316   1.000000   1.000000
      2          8.026399        9.071011   1.000000   1.000000
      3          9.084251       10.090749   1.000000   1.000000
      4          9.414037       10.622151   1.000000   1.000000
      5         10.351359       11.756416   1.000000   1.000000
      6         10.604362       12.124857   1.000000   1.000000
      7         10.895139       12.288128   1.000000   1.000000
      8         11.527712       13.099855   1.000000   0.999500
      9         11.555241       13.106145   1.000000   0.999072
     10         11.812355       13.422946   1.000000   0.000000
     11         12.931964       14.673870   1.000000   0.000000
     12         18.630746       19.396657   0.000000   0.000000
     13         21.812589       22.592701   0.000000   0.000000
     14         27.967952       28.453653   0.000000   0.000000
     15         33.761767       34.052321   0.000000   0.000000
     16         35.546659       35.694961   0.000000   0.000000
     17         35.964415       36.215502   0.000000   0.000000
     18         40.010475       39.922318   0.000000   0.000000
     19         41.448216       41.891617   0.000000   0.000000
     20         45.094804       45.302963   0.000000   0.000000
     21         45.678875       46.020214   0.000000   0.000000
     22         45.868304       46.045862   0.000000   0.000000
     23         47.498346       47.700676   0.000000   0.000000
     24         49.438850       50.934298   0.000000   0.000000
 
  0.3333333E+00 -0.2775558E-16  0.0000000E+00  0.5208333E-02
      1          6.656668        6.908761   1.000000   1.000000
      2          7.909174        9.017891   1.000000   1.000000
      3          8.385837        9.419258   1.000000   1.000000
      4          9.573777       10.570645   1.000000   1.000000
      5         10.348939       11.841466   1.000000   1.000000
      6         10.515999       11.903668   1.000000   1.000000
      7         10.664029       12.024041   1.000000   1.000000
      8         12.194068       13.836324   1.000000   0.000000
      9         12.399448       13.972077   1.000000   0.000000
     10         12.454581       14.061218   1.000000   0.000000
     11         12.990757       14.739107   1.000000   0.000000
     12         20.867956       21.547097   0.000000   0.000000
     13         21.618941       22.275358   0.000000   0.000000
     14         25.024636       25.625503   0.000000   0.000000
     15         31.828523       32.067762   0.000000   0.000000
     16         32.334323       32.617555   0.000000   0.000000
     17         33.861780       34.248509   0.000000   0.000000
     18         38.817514       38.741997   0.000000   0.000000
     19         39.783840       40.259197   0.000000   0.000000
     20         43.625639       43.968516   0.000000   0.000000
     21         44.744362       45.003714   0.000000   0.000000
     22         46.897379       47.134808   0.000000   0.000000
     23         49.398043       49.575111   0.000000   0.000000
     24         49.605059       51.645335   0.000000   0.000000
 
  0.4166667E+00  0.2775558E-16  0.0000000E+00  0.5208333E-02
      1          7.337554        7.985367   1.000000   1.000000
      2          7.695970        8.743607   1.000000   1.000000
      3          7.962148        9.014195   1.000000   1.000000
      4         10.053989       10.768025   1.000000   1.000000
      5         10.175400       11.649511   1.000000   1.000000
      6         10.501851       11.835798   1.000000   1.000000
      7         10.781151       12.194707   1.000000   1.000000
      8         12.698168       14.399028   1.000000   0.000000
      9         12.887230       14.599648   1.000000   0.000000
     10         13.022065       14.773501   1.000000   0.000000
     11         13.838709       15.209283   0.000000   0.000000
     12         19.494613       20.250457   0.000000   0.000000
     13         23.135531       23.705460   0.000000   0.000000
     14         24.856892       25.368492   0.000000   0.000000
     15         29.509004       29.940701   0.000000   0.000000
     16         30.537505       30.723552   0.000000   0.000000
     17         31.264483       31.751531   0.000000   0.000000
     18         37.947408       37.859068   0.000000   0.000000
     19         39.144914       39.622832   0.000000   0.000000
     20         42.246981       42.555165   0.000000   0.000000
     21         44.548280       44.838507   0.000000   0.000000
     22         47.552097       47.941946   0.000000   0.000000
     23         49.686209       51.923531   0.000000   0.000000
     24         50.075198       52.268685   0.000000   0.000000
 
  0.5000000E+00  0.8326673E-16  0.0000000E+00  0.2604167E-02
      1          7.441640        8.455984   1.000000   1.000000
      2          7.655360        8.500749   1.000000   1.000000
      3          7.820531        8.879220   1.000000   1.000000
      4         10.114235       10.964175   1.000000   1.000000
      5         10.358242       11.581962   1.000000   1.000000
      6         10.443640       11.767927   1.000000   1.000000
      7         10.883867       12.310360   1.000000   1.000000
      8         12.881353       14.602693   1.000000   0.000000
      9         13.031649       14.783970   1.000000   0.000000
     10         13.086271       14.824241   0.999881   0.000000
     11         15.151187       16.340508   0.000000   0.000000
     12         17.633576       18.541961   0.000000   0.000000
     13         24.597923       25.055037   0.000000   0.000000
     14         25.496128       25.905504   0.000000   0.000000
     15         27.866124       28.425489   0.000000   0.000000
     16         29.857572       30.239953   0.000000   0.000000
     17         30.078055       30.414227   0.000000   0.000000
     18         37.638636       37.542877   0.000000   0.000000
     19         38.994011       39.475913   0.000000   0.000000
     20         41.762618       42.055915   0.000000   0.000000
     21         44.486020       44.786533   0.000000   0.000000
     22         47.775739       48.246159   0.000000   0.000000
     23         49.790389       51.967405   0.000000   0.000000
     24         50.172362       53.255145   0.000000   0.000000
 
  0.8333333E-01  0.8333333E-01  0.0000000E+00  0.5208333E-02
      1          3.983634        4.017251   1.000000   1.000000
      2          7.583995        8.500423   1.000000   1.000000
      3          9.716876       11.094158   1.000000   1.000000
      4         10.355618       11.322698   1.000000   1.000000
      5         10.560225       12.036197   1.000000   1.000000
      6         10.788200       12.295385   1.000000   1.000000
      7         10.789767       12.318797   1.000000   1.000000
      8         10.850093       12.389641   1.000000   1.000000
      9         11.193140       12.750386   1.000000   1.000000
     10         11.313013       12.752556   1.000000   1.000000
     11         12.807724       14.533688   1.000000   0.000000
     12         16.003593       16.873787   0.000000   0.000000
     13         21.591537       22.501006   0.000000   0.000000
     14         33.484008       33.701914   0.000000   0.000000
     15         34.801435       35.151105   0.000000   0.000000
     16         39.970842       40.076649   0.000000   0.000000
     17         40.492456       40.433217   0.000000   0.000000
     18         40.568155       40.494998   0.000000   0.000000
     19         41.138107       41.220291   0.000000   0.000000
     20         44.986418       45.150525   0.000000   0.000000
     21         46.877709       47.303882   0.000000   0.000000
     22         47.413334       47.900115   0.000000   0.000000
     23         48.897553       49.070710   0.000000   0.000000
     24         49.465216       49.663546   0.000000   0.000000
 
  0.1666667E+00  0.8333333E-01  0.0000000E+00  0.1041667E-01
      1          4.995796        5.050259   1.000000   1.000000
      2          8.021633        9.013390   1.000000   1.000000
      3          9.347414       10.423411   1.000000   1.000000
      4          9.434762       10.633695   1.000000   1.000000
      5         10.401105       11.826542   1.000000   1.000000
      6         10.546390       12.036043   1.000000   1.000000
      7         11.119318       12.571731   1.000000   1.000000
      8         11.127450       12.681583   1.000000   1.000000
      9         11.352660       12.901002   1.000000   1.000000
     10         11.746361       13.330614   1.000000   0.000605
     11         12.873635       14.607826   1.000000   0.000000
     12         17.881573       18.679918   0.000000   0.000000
     13         21.765664       22.590710   0.000000   0.000000
     14         29.935613       30.341884   0.000000   0.000000
     15         32.422581       32.777238   0.000000   0.000000
     16         37.226503       37.274299   0.000000   0.000000
     17         38.692053       38.872620   0.000000   0.000000
     18         39.501593       39.553105   0.000000   0.000000
     19         41.762606       41.916976   0.000000   0.000000
     20         44.213587       44.695298   0.000000   0.000000
     21         44.915392       45.003024   0.000000   0.000000
     22         48.054465       48.805947   0.000000   0.000000
     23         49.137171       49.337128   0.000000   0.000000
     24         49.472937       49.911616   0.000000   0.000000
 
  0.2500000E+00  0.8333333E-01  0.0000000E+00  0.1041667E-01
      1          6.255052        6.396082   1.000000   1.000000
      2          8.133436        9.229978   1.000000   1.000000
      3          8.673064        9.696507   1.000000   1.000000
      4          9.261246       10.389943   1.000000   1.000000
      5         10.295296       11.746283   1.000000   1.000000
      6         10.420549       11.806295   1.000000   1.000000
      7         10.861107       12.282768   1.000000   1.000000
      8         11.662823       13.242855   1.000000   0.225324
      9         12.024116       13.635576   1.000000   0.000000
     10         12.493925       14.084465   1.000000   0.000000
     11         12.929008       14.669676   1.000000   0.000000
     12         20.001805       20.724209   0.000000   0.000000
     13         21.983158       22.680858   0.000000   0.000000
     14         26.318464       26.857754   0.000000   0.000000
     15         30.669082       31.012847   0.000000   0.000000
     16         33.987339       34.181944   0.000000   0.000000
     17         36.099224       36.413842   0.000000   0.000000
     18         38.146953       38.219472   0.000000   0.000000
     19         41.521281       41.825098   0.000000   0.000000
     20         42.171113       42.595012   0.000000   0.000000
     21         45.572241       45.652984   0.000000   0.000000
     22         49.087713       49.325346   0.000000   0.000000
     23         49.402090       49.612612   0.000000   0.000000
     24         49.415804       50.773674   0.000000   0.000000
 
  0.3333333E+00  0.8333333E-01  0.0000000E+00  0.1041667E-01
      1          7.260649        7.688708   1.000000   1.000000
      2          7.901839        9.000503   1.000000   1.000000
      3          8.148843        9.199642   1.000000   1.000000
      4          9.588874       10.479832   1.000000   1.000000
      5         10.135111       11.569423   1.000000   1.000000
      6         10.604935       11.982695   1.000000   1.000000
      7         10.672956       12.073653   1.000000   1.000000
      8         12.335895       13.962835   1.000000   0.000000
      9         12.602703       14.276228   1.000000   0.000000
     10         12.963316       14.707575   1.000000   0.000000
     11         13.509801       15.004084   0.000000   0.000000
     12         20.972567       21.636536   0.000000   0.000000
     13         22.261081       22.892247   0.000000   0.000000
     14         24.667216       25.237853   0.000000   0.000000
     15         29.269043       29.581182   0.000000   0.000000
     16         30.992431       31.339704   0.000000   0.000000
     17         33.096083       33.500542   0.000000   0.000000
     18         37.082341       37.132384   0.000000   0.000000
     19         40.739707       41.059556   0.000000   0.000000
     20         41.072257       41.496647   0.000000   0.000000
     21         45.810001       45.949085   0.000000   0.000000
     22         49.176619       49.682701   0.000000   0.000000
     23         49.674313       51.355218   0.000000   0.000000
     24         50.168438       51.869836   0.000000   0.000000
 
  0.4166667E+00  0.8333333E-01  0.0000000E+00  0.1041667E-01
      1          7.570517        8.439405   1.000000   1.000000
      2          7.782309        8.739246   1.000000   1.000000
      3          7.883507        8.949221   1.000000   1.000000
      4         10.059992       10.738599   1.000000   1.000000
      5         10.072462       11.517348   1.000000   1.000000
      6         10.435058       11.767829   1.000000   1.000000
      7         10.877446       12.305298   1.000000   1.000000
      8         12.823473       14.527837   1.000000   0.000000
      9         12.919132       14.629832   1.000000   0.000000
     10         12.978418       14.724073   1.000000   0.000000
     11         14.991153       16.212429   0.000000   0.000000
     12         18.468779       19.321176   0.000000   0.000000
     13         24.390954       24.900602   0.000000   0.000000
     14         25.430740       25.870390   0.000000   0.000000
     15         28.342221       28.656889   0.000000   0.000000
     16         28.504119       29.007443   0.000000   0.000000
     17         30.787030       31.236286   0.000000   0.000000
     18         36.514413       36.545436   0.000000   0.000000
     19         40.071398       40.381470   0.000000   0.000000
     20         40.731651       41.161038   0.000000   0.000000
     21         45.800316       45.974357   0.000000   0.000000
     22         49.218973       50.026300   0.000000   0.000000
     23         49.788325       52.012305   0.000000   0.000000
     24         50.518931       53.254519   0.000000   0.000000
 
  0.1666667E+00  0.1666667E+00  0.0000000E+00  0.5208333E-02
      1          6.116038        6.219076   1.000000   1.000000
      2          8.379847        9.434960   1.000000   1.000000
      3          8.823631        9.840044   1.000000   1.000000
      4          8.953285       10.167600   1.000000   1.000000
      5         10.199312       11.640077   1.000000   1.000000
      6         10.414983       11.804464   1.000000   1.000000
      7         10.987782       12.429228   1.000000   1.000000
      8         11.349466       12.929996   1.000000   1.000000
      9         12.006916       13.606371   1.000000   0.000000
     10         12.521513       14.103428   1.000000   0.000000
     11         12.875823       14.609839   1.000000   0.000000
     12         19.710151       20.451643   0.000000   0.000000
     13         22.089059       22.809921   0.000000   0.000000
     14         27.934031       28.385561   0.000000   0.000000
     15         28.776839       29.212596   0.000000   0.000000
     16         35.301633       35.348277   0.000000   0.000000
     17         36.912588       37.186791   0.000000   0.000000
     18         38.386717       38.697912   0.000000   0.000000
     19         39.309948       39.576995   0.000000   0.000000
     20         44.535743       44.847717   0.000000   0.000000
     21         45.833865       45.828443   0.000000   0.000000
     22         47.586218       48.385506   0.000000   0.000000
     23         49.592027       51.294912   0.000000   0.000000
     24         50.516251       52.414786   0.000000   0.000000
 
  0.2500000E+00  0.1666667E+00  0.0000000E+00  0.1041667E-01
      1          7.293796        7.553851   1.000000   1.000000
      2          8.331936        9.386741   1.000000   1.000000
      3          8.333444        9.448859   1.000000   1.000000
      4          8.939667       10.008424   1.000000   1.000000
      5          9.993576       11.394804   1.000000   1.000000
      6         10.604206       11.992173   1.000000   1.000000
      7         10.732542       12.137591   1.000000   1.000000
      8         11.760045       13.369957   1.000000   0.000007
      9         12.601624       14.266198   1.000000   0.000000
     10         12.872856       14.606387   1.000000   0.000000
     11         13.551315       15.059267   0.000000   0.000000
     12         21.828105       22.500059   0.000000   0.000000
     13         22.291685       22.896756   0.000000   0.000000
     14         25.058059       25.614125   0.000000   0.000000
     15         27.093405       27.519860   0.000000   0.000000
     16         32.761745       32.981333   0.000000   0.000000
     17         35.192281       35.445447   0.000000   0.000000
     18         35.264082       35.639261   0.000000   0.000000
     19         38.040856       38.372564   0.000000   0.000000
     20         44.718990       45.061681   0.000000   0.000000
     21         47.275687       47.253257   0.000000   0.000000
     22         49.094074       50.277495   0.000000   0.000000
     23         49.682411       51.883244   0.000000   0.000000
     24         51.200040       52.477085   0.000000   0.000000
 
  0.3333333E+00  0.1666667E+00  0.0000000E+00  0.1041667E-01
      1          7.931157        8.578838   1.000000   1.000000
      2          8.024677        9.106602   1.000000   1.000000
      3          8.087063        9.158435   1.000000   1.000000
      4          9.378583       10.221332   1.000000   1.000000
      5          9.939732       11.328338   1.000000   1.000000
      6         10.454914       11.813227   1.000000   1.000000
      7         10.868458       12.291496   1.000000   1.000000
      8         12.304667       13.952009   1.000000   0.000000
      9         12.869227       14.602059   1.000000   0.000000
     10         12.900598       14.609411   1.000000   0.000000
     11         14.954408       16.240409   0.000000   0.000000
     12         20.288091       21.000593   0.000000   0.000000
     13         24.089390       24.671102   0.000000   0.000000
     14         24.880700       25.378033   0.000000   0.000000
     15         26.227343       26.626992   0.000000   0.000000
     16         30.035734       30.436996   0.000000   0.000000
     17         32.230209       32.655222   0.000000   0.000000
     18         34.348310       34.553049   0.000000   0.000000
     19         37.225873       37.560315   0.000000   0.000000
     20         44.399411       44.776555   0.000000   0.000000
     21         48.232965       48.239910   0.000000   0.000000
     22         49.719596       51.668673   0.000000   0.000000
     23         49.769282       52.939048   0.000000   0.000000
     24         52.199259       53.354734   0.000000   0.000000
 
  0.4166667E+00  0.1666667E+00  0.0000000E+00  0.5208333E-02
      1          7.919834        8.942392   1.000000   1.000000
      2          7.931694        8.989684   1.000000   1.000000
      3          8.108378        9.012346   1.000000   1.000000
      4          9.662312       10.408857   1.000000   1.000000
      5          9.964398       11.370125   1.000000   1.000000
      6         10.310125       11.629225   1.000000   1.000000
      7         10.981846       12.424632   1.000000   1.000000
      8         12.676052       14.357356   1.000000   0.000000
      9         12.867501       14.588135   1.000000   0.000000
     10         12.872307       14.599973   1.000000   0.000000
     11         16.315356       17.327581   0.000000   0.000000
     12         18.338944       19.259297   0.000000   0.000000
     13         25.284465       25.703115   0.000000   0.000000
     14         25.691267       26.170807   0.000000   0.000000
     15         26.231770       26.631381   0.000000   0.000000
     16         28.264998       28.795761   0.000000   0.000000
     17         30.726540       31.187263   0.000000   0.000000
     18         34.080233       34.271546   0.000000   0.000000
     19         36.926724       37.257185   0.000000   0.000000
     20         44.265004       44.649736   0.000000   0.000000
     21         48.473573       48.502066   0.000000   0.000000
     22         49.757524       52.098866   0.000000   0.000000
     23         49.830735       52.855521   0.000000   0.000000
     24         52.989883       53.551501   0.000000   0.000000
 
  0.2500000E+00  0.2500000E+00  0.0000000E+00  0.5208333E-02
      1          8.105580        8.687289   1.000000   1.000000
      2          8.154225        9.197117   1.000000   1.000000
      3          8.611540        9.622587   1.000000   1.000000
      4          8.655823        9.693446   1.000000   1.000000
      5          9.853187       11.215754   1.000000   1.000000
      6         10.476430       11.843959   1.000000   1.000000
      7         10.875076       12.289900   1.000000   1.000000
      8         12.000126       13.640406   1.000000   0.000000
      9         12.813198       14.539900   1.000000   0.000000
     10         12.908018       14.616834   1.000000   0.000000
     11         14.983447       16.291666   0.000000   0.000000
     12         22.216130       22.766466   0.000000   0.000000
     13         23.046009       23.645289   0.000000   0.000000
     14         23.971464       24.581099   0.000000   0.000000
     15         25.800125       26.260074   0.000000   0.000000
     16         31.785475       32.001400   0.000000   0.000000
     17         32.362539       32.776611   0.000000   0.000000
     18         33.954605       34.363991   0.000000   0.000000
     19         34.983766       35.325882   0.000000   0.000000
     20         47.660786       47.910477   0.000000   0.000000
     21         49.053140       49.381432   0.000000   0.000000
     22         49.436576       50.513417   0.000000   0.000000
     23         49.732921       52.582740   0.000000   0.000000
     24         51.504659       53.737508   0.000000   0.000000
 
  0.3333333E+00  0.2500000E+00  0.0000000E+00  0.1041667E-01
      1          7.993396        9.112713   1.000000   1.000000
      2          8.372900        9.273670   1.000000   1.000000
      3          8.456301        9.443298   1.000000   1.000000
      4          9.095819        9.930457   1.000000   1.000000
      5          9.881460       11.230410   1.000000   1.000000
      6         10.210952       11.540473   1.000000   1.000000
      7         11.095665       12.539659   1.000000   1.000000
      8         12.367976       14.036227   1.000000   0.000000
      9         12.778021       14.500675   1.000000   0.000000
     10         12.834120       14.545526   1.000000   0.000000
     11         16.846954       17.855463   0.000000   0.000000
     12         19.825953       20.581300   0.000000   0.000000
     13         22.339832       22.899703   0.000000   0.000000
     14         26.242952       26.769712   0.000000   0.000000
     15         26.760758       27.170862   0.000000   0.000000
     16         29.437626       29.881640   0.000000   0.000000
     17         31.608184       31.924355   0.000000   0.000000
     18         31.696690       32.121842   0.000000   0.000000
     19         34.103821       34.462102   0.000000   0.000000
     20         48.100207       48.500048   0.000000   0.000000
     21         49.717367       51.138163   0.000000   0.000000
     22         49.848714       52.026838   0.000000   0.000000
     23         51.194451       52.979992   0.000000   0.000000
     24         52.815764       53.944515   0.000000   0.000000
 
  0.3333333E+00  0.3333333E+00  0.0000000E+00  0.1736111E-02
      1          7.994559        9.132495   1.000000   1.000000
      2          8.613211        9.577367   1.000000   1.000000
      3          8.613212        9.577367   1.000000   1.000000
      4          8.902574        9.771255   1.000000   1.000000
      5          9.985012       11.308714   1.000000   1.000000
      6          9.985012       11.308714   1.000000   1.000000
      7         11.225123       12.674158   1.000000   1.000000
      8         12.563471       14.254398   1.000000   0.000000
      9         12.563472       14.254398   1.000000   0.000000
     10         12.741810       14.460536   1.000000   0.000000
     11         18.651889       19.437402   0.000000   0.000000
     12         19.877383       20.619858   0.000000   0.000000
     13         19.877383       20.619864   0.000000   0.000000
     14         27.596783       27.992759   0.000000   0.000000
     15         28.494917       28.974427   0.000000   0.000000