PROCAR lm decomposed
# of k-points:   95         # of bands:   24         # of ions:    2

 k-point     1 :    0.00000000 0.00000000 0.00000000     weight = 0.00086806

band     1 # energy    3.15671904 # occ.  1.00000000
 
ion      s     py     pz     px    dxy    dyz    dz2    dxz  x2-y2    tot
    1  0.454  0.000  0.000  0.000  0.000  0.000  0.000  0.000  0.000  0.454
    2  0.454  0.000  0.000  0.000  0.000  0.000  0.000  0.000  0.000  0.454
tot    0.907  0.000  0.000  0.000  0.000  0.000  0.000  0.000  0.000  0.907
 
band     2 # energy    7.09474694 # occ.  1.00000000
 
ion      s     py     pz     px    dxy    dyz    dz2    dxz  x2-y2    tot
    1  0.099  0.000  0.000  0.000  0.000  0.000  0.390  0.000  0.000  0.488
    2  0.099  0.000  0.000  0.000  0.000  0.000  0.390  0.000  0.000  0.488
tot    0.197  0.000  0.000  0.000  0.000  0.000  0.779  0.000  0.000  0.977
 
band     3 # energy   10.31567443 # occ.  1.00000000
 
ion      s     py     pz     px    dxy    dyz    dz2    dxz  x2-y2    tot
    1  0.000  0.000  0.000  0.000  0.000  0.000  0.495  0.000  0.000  0.495
    2  0.000  0.000  0.000  0.000  0.000  0.000  0.495  0.000  0.000  0.495
tot    0.000  0.000  0.000  0.000  0.000  0.000  0.991  0.000  0.000  0.991
 
band     4 # energy   10.33157355 # occ.  1.00000000
 
ion      s     py     pz     px    dxy    dyz    dz2    dxz  x2-y2    tot
    1  0.000  0.000  0.000  0.001  0.491  0.000  0.000  0.000  0.000  0.492
    2  0.000  0.000  0.000  0.001  0.491  0.000  0.000  0.000  0.000  0.492
tot    0.000  0.000  0.000  0.002  0.981  0.000  0.000  0.000  0.000  0.983
 
band     5 # energy   10.33157358 # occ.  1.00000000
 
ion      s     py     pz     px    dxy    dyz    dz2    dxz  x2-y2    tot
    1  0.000  0.001  0.000  0.000  0.000  0.000  0.000  0.000  0.491  0.492
    2  0.000  0.001  0.000  0.000  0.000  0.000  0.000  0.000  0.491  0.492
tot    0.000  0.002  0.000  0.000  0.000  0.000  0.000  0.000  0.981  0.983
 
band     6 # energy   10.76579422 # occ.  1.00000000
 
ion      s     py     pz     px    dxy    dyz    dz2    dxz  x2-y2    tot
    1  0.000  0.001  0.000  0.000  0.000  0.000  0.000  0.000  0.494  0.495
    2  0.000  0.001  0.000  0.000  0.000  0.000  0.000  0.000  0.494  0.495
tot    0.000  0.002  0.000  0.000  0.000  0.000  0.000  0.000  0.987  0.989
 
band     7 # energy   10.76579428 # occ.  1.00000000
 
ion      s     py     pz     px    dxy    dyz    dz2    dxz  x2-y2    tot
    1  0.000  0.000  0.000  0.001  0.494  0.000  0.000  0.000  0.000  0.495
    2  0.000  0.000  0.000  0.001  0.494  0.000  0.000  0.000  0.000  0.495
tot    0.000  0.000  0.000  0.002  0.987  0.000  0.000  0.000  0.000  0.989
 
band     8 # energy   11.22652265 # occ.  1.00000000
 
ion      s     py     pz     px    dxy    dyz    dz2    dxz  x2-y2    tot
    1  0.000  0.000  0.000  0.000  0.000  0.495  0.000  0.000  0.000  0.495
    2  0.000  0.000  0.000  0.000  0.000  0.495  0.000  0.000  0.000  0.495
tot    0.000  0.000  0.000  0.000  0.000  0.990  0.000  0.000  0.000  0.990
 
band     9 # energy   11.22652273 # occ.  1.00000000
 
ion      s     py     pz     px    dxy    dyz    dz2    dxz  x2-y2    tot
    1  0.000  0.000  0.000  0.000  0.000  0.000  0.000  0.495  0.000  0.495
    2  0.000  0.000  0.000  0.000  0.000  0.000  0.000  0.495  0.000  0.495
tot    0.000  0.000  0.000  0.000  0.000  0.000  0.000  0.990  0.000  0.990
 
band    10 # energy   12.71079195 # occ.  1.00000000
 
ion      s     py     pz     px    dxy    dyz    dz2    dxz  x2-y2    tot
    1  0.000  0.000  0.000  0.000  0.000  0.000  0.000  0.493  0.000  0.493
    2  0.000  0.000  0.000  0.000  0.000  0.000  0.000  0.493  0.000  0.493
tot    0.000  0.000  0.000  0.000  0.000  0.000  0.000  0.985  0.000  0.985
 
band    11 # energy   12.71079212 # occ.  1.00000000
 
ion      s     py     pz     px    dxy    dyz    dz2    dxz  x2-y2    tot
    1  0.000  0.000  0.000  0.000  0.000  0.493  0.000  0.000  0.000  0.493
    2  0.000  0.000  0.000  0.000  0.000  0.493  0.000  0.000  0.000  0.493
tot    0.000  0.000  0.000  0.000  0.000  0.985  0.000  0.000  0.000  0.985
 
band    12 # energy   13.11034687 # occ.  0.99862135
 
ion      s     py     pz     px    dxy    dyz    dz2    dxz  x2-y2    tot
    1  0.000  0.000  0.438  0.000  0.000  0.000  0.000  0.000  0.000  0.438
    2  0.000  0.000  0.438  0.000  0.000  0.000  0.000  0.000  0.000  0.438
tot    0.000  0.000  0.876  0.000  0.000  0.000  0.000  0.000  0.000  0.876
 
band    13 # energy   21.49785911 # occ.  0.00000000
 
ion      s     py     pz     px    dxy    dyz    dz2    dxz  x2-y2    tot
    1  0.236  0.000  0.000  0.000  0.000  0.000  0.274  0.000  0.000  0.510
    2  0.236  0.000  0.000  0.000  0.000  0.000  0.274  0.000  0.000  0.510
tot    0.472  0.000  0.000  0.000  0.000  0.000  0.549  0.000  0.000  1.020
 
band    14 # energy   36.73785938 # occ.  0.00000000
 
ion      s     py     pz     px    dxy    dyz    dz2    dxz  x2-y2    tot
    1  0.007  0.000  0.000  0.000  0.000  0.000  0.034  0.000  0.000  0.041
    2  0.007  0.000  0.000  0.000  0.000  0.000  0.034  0.000  0.000  0.041
tot    0.014  0.000  0.000  0.000  0.000  0.000  0.068  0.000  0.000  0.082
 
band    15 # energy   40.47141699 # occ.  0.00000000
 
ion      s     py     pz     px    dxy    dyz    dz2    dxz  x2-y2    tot
    1  0.022  0.000  0.000  0.000  0.000  0.000  0.079  0.000  0.000  0.101
    2  0.022  0.000  0.000  0.000  0.000  0.000  0.079  0.000  0.000  0.101
tot    0.043  0.000  0.000  0.000  0.000  0.000  0.159  0.000  0.000  0.202
 
band    16 # energy   40.76059906 # occ.  0.00000000
 
ion      s     py     pz     px    dxy    dyz    dz2    dxz  x2-y2    tot
    1  0.000  0.000  0.019  0.000  0.000  0.000  0.000  0.000  0.000  0.019
    2  0.000  0.000  0.019  0.000  0.000  0.000  0.000  0.000  0.000  0.019
tot    0.000  0.000  0.038  0.000  0.000  0.000  0.000  0.000  0.000  0.038
 
band    17 # energy   41.40616239 # occ.  0.00000000
 
ion      s     py     pz     px    dxy    dyz    dz2    dxz  x2-y2    tot
    1  0.000  0.261  0.000  0.000  0.000  0.000  0.000  0.000  0.179  0.440
    2  0.000  0.261  0.000  0.000  0.000  0.000  0.000  0.000  0.179  0.440
tot    0.000  0.521  0.000  0.000  0.000  0.000  0.000  0.000  0.358  0.879
 
band    18 # energy   41.40616725 # occ.  0.00000000
 
ion      s     py     pz     px    dxy    dyz    dz2    dxz  x2-y2    tot
    1  0.000  0.000  0.000  0.261  0.179  0.000  0.000  0.000  0.000  0.440
    2  0.000  0.000  0.000  0.261  0.179  0.000  0.000  0.000  0.000  0.440
tot    0.000  0.000  0.000  0.521  0.358  0.000  0.000  0.000  0.000  0.879
 
band    19 # energy   42.55407332 # occ.  0.00000000
 
ion      s     py     pz     px    dxy    dyz    dz2    dxz  x2-y2    tot
    1  0.000  0.077  0.000  0.000  0.000  0.000  0.000  0.000  0.515  0.591
    2  0.000  0.077  0.000  0.000  0.000  0.000  0.000  0.000  0.515  0.591
tot    0.000  0.154  0.000  0.000  0.000  0.000  0.000  0.000  1.029  1.183
 
band    20 # energy   42.55407520 # occ.  0.00000000
 
ion      s     py     pz     px    dxy    dyz    dz2    dxz  x2-y2    tot
    1  0.000  0.000  0.000  0.077  0.515  0.000  0.000  0.000  0.000  0.591
    2  0.000  0.000  0.000  0.077  0.515  0.000  0.000  0.000  0.000  0.591
tot    0.000  0.000  0.000  0.154  1.029  0.000  0.000  0.000  0.000  1.183
 
band    21 # energy   46.56307461 # occ.  0.00000000
 
ion      s     py     pz     px    dxy    dyz    dz2    dxz  x2-y2    tot
    1  0.000  0.000  0.000  0.000  0.000  0.164  0.000  0.000  0.000  0.164
    2  0.000  0.000  0.000  0.000  0.000  0.164  0.000  0.000  0.000  0.164
tot    0.000  0.000  0.000  0.000  0.000  0.327  0.000  0.000  0.000  0.327
 
band    22 # energy   46.56307677 # occ.  0.00000000
 
ion      s     py     pz     px    dxy    dyz    dz2    dxz  x2-y2    tot
    1  0.000  0.000  0.000  0.000  0.000  0.000  0.000  0.164  0.000  0.164
    2  0.000  0.000  0.000  0.000  0.000  0.000  0.000  0.164  0.000  0.164
tot    0.000  0.000  0.000  0.000  0.000  0.000  0.000  0.327  0.000  0.327
 
band    23 # energy   48.19407966 # occ.  0.00000000
 
ion      s     py     pz     px    dxy    dyz    dz2    dxz  x2-y2    tot
    1  0.000  0.000  0.053  0.000  0.000  0.000  0.000  0.000  0.000  0.053
    2  0.000  0.000  0.053  0.000  0.000  0.000  0.000  0.000  0.000  0.053
tot    0.000  0.000  0.105  0.000  0.000  0.000  0.000  0.000  0.000  0.105
 
band    24 # energy   48.73068735 # occ.  0.00000000
 
ion      s     py     pz     px    dxy    dyz    dz2    dxz  x2-y2    tot
    1  0.091  0.000  0.000  0.000  0.000  0.000  0.779  0.000  0.000  0.871
    2  0.091  0.000  0.000  0.000  0.000  0.000  0.779  0.000  0.000  0.871
tot    0.183  0.000  0.000  0.000  0.000  0.000  1.559  0.000  0.000  1.741
 

 k-point     2 :    0.08333333 0.00000000 0.00000000     weight = 0.00520833

band     1 # energy    3.43817945 # occ.  1.00000000
 
ion      s     py     pz     px    dxy    dyz    dz2    dxz  x2-y2    tot
    1  0.442  0.003  0.000  0.009  0.000  0.000  0.000  0.000  0.000  0.454
    2  0.442  0.003  0.000  0.009  0.000  0.000  0.000  0.000  0.000  0.454
tot    0.884  0.006  0.000  0.017  0.000  0.000  0.000  0.000  0.000  0.908
 
band     2 # energy    7.27146530 # occ.  1.00000000
 
ion      s     py     pz     px    dxy    dyz    dz2    dxz  x2-y2    tot
    1  0.090  0.002  0.000  0.005  0.002  0.000  0.389  0.000  0.001  0.488
    2  0.090  0.002  0.000  0.005  0.002  0.000  0.389  0.000  0.001  0.488
tot    0.179  0.004  0.000  0.011  0.005  0.000  0.777  0.000  0.002  0.977
 
band     3 # energy   10.01289728 # occ.  1.00000000
 
ion      s     py     pz     px    dxy    dyz    dz2    dxz  x2-y2    tot
    1  0.000  0.000  0.000  0.001  0.242  0.000  0.167  0.000  0.081  0.491
    2  0.000  0.000  0.000  0.001  0.242  0.000  0.167  0.000  0.081  0.491
tot    0.000  0.001  0.000  0.003  0.483  0.000  0.334  0.000  0.161  0.982
 
band     4 # energy   10.48219347 # occ.  1.00000000
 
ion      s     py     pz     px    dxy    dyz    dz2    dxz  x2-y2    tot
    1  0.000  0.001  0.000  0.000  0.122  0.000  0.000  0.000  0.367  0.491
    2  0.000  0.001  0.000  0.000  0.122  0.000  0.000  0.000  0.367  0.491
tot    0.000  0.002  0.000  0.001  0.245  0.000  0.000  0.000  0.734  0.982
 
band     5 # energy   10.57949535 # occ.  1.00000000
 
ion      s     py     pz     px    dxy    dyz    dz2    dxz  x2-y2    tot
    1  0.000  0.000  0.000  0.001  0.149  0.000  0.295  0.000  0.050  0.494
    2  0.000  0.000  0.000  0.001  0.149  0.000  0.295  0.000  0.050  0.494
tot    0.000  0.000  0.000  0.001  0.298  0.000  0.589  0.000  0.099  0.988
 
band     6 # energy   10.70171240 # occ.  1.00000000
 
ion      s     py     pz     px    dxy    dyz    dz2    dxz  x2-y2    tot
    1  0.002  0.000  0.000  0.001  0.342  0.000  0.035  0.000  0.114  0.494
    2  0.002  0.000  0.000  0.001  0.342  0.000  0.035  0.000  0.114  0.494
tot    0.003  0.001  0.000  0.002  0.684  0.000  0.070  0.000  0.228  0.987
 
band     7 # energy   10.89884483 # occ.  1.00000000
 
ion      s     py     pz     px    dxy    dyz    dz2    dxz  x2-y2    tot
    1  0.000  0.001  0.000  0.000  0.123  0.000  0.000  0.000  0.369  0.494
    2  0.000  0.001  0.000  0.000  0.123  0.000  0.000  0.000  0.369  0.494
tot    0.000  0.003  0.000  0.001  0.246  0.000  0.000  0.000  0.739  0.989
 
band     8 # energy   11.00550294 # occ.  1.00000000
 
ion      s     py     pz     px    dxy    dyz    dz2    dxz  x2-y2    tot
    1  0.000  0.000  0.026  0.000  0.000  0.116  0.000  0.347  0.000  0.488
    2  0.000  0.000  0.026  0.000  0.000  0.116  0.000  0.347  0.000  0.488
tot    0.000  0.000  0.051  0.000  0.000  0.231  0.000  0.694  0.000  0.977
 
band     9 # energy   11.12897251 # occ.  1.00000000
 
ion      s     py     pz     px    dxy    dyz    dz2    dxz  x2-y2    tot
    1  0.000  0.000  0.000  0.000  0.000  0.371  0.000  0.124  0.000  0.494
    2  0.000  0.000  0.000  0.000  0.000  0.371  0.000  0.124  0.000  0.494
tot    0.000  0.000  0.000  0.000  0.000  0.741  0.000  0.247  0.000  0.988
 
band    10 # energy   11.58630876 # occ.  1.00000000
 
ion      s     py     pz     px    dxy    dyz    dz2    dxz  x2-y2    tot
    1  0.000  0.000  0.137  0.000  0.000  0.084  0.000  0.253  0.000  0.474
    2  0.000  0.000  0.137  0.000  0.000  0.084  0.000  0.253  0.000  0.474
tot    0.000  0.000  0.274  0.000  0.000  0.169  0.000  0.506  0.000  0.948
 
band    11 # energy   12.75428916 # occ.  1.00000000
 
ion      s     py     pz     px    dxy    dyz    dz2    dxz  x2-y2    tot
    1  0.000  0.000  0.000  0.000  0.000  0.370  0.000  0.123  0.000  0.493
    2  0.000  0.000  0.000  0.000  0.000  0.370  0.000  0.123  0.000  0.493
tot    0.000  0.000  0.000  0.000  0.000  0.740  0.000  0.247  0.000  0.987
 
band    12 # energy   14.62017564 # occ.  0.00000000
 
ion      s     py     pz     px    dxy    dyz    dz2    dxz  x2-y2    tot
    1  0.000  0.000  0.271  0.000  0.000  0.049  0.000  0.146  0.000  0.465
    2  0.000  0.000  0.271  0.000  0.000  0.049  0.000  0.146  0.000  0.465
tot    0.000  0.000  0.541  0.000  0.000  0.097  0.000  0.291  0.000  0.929
 
band    13 # energy   21.52488913 # occ.  0.00000000
 
ion      s     py     pz     px    dxy    dyz    dz2    dxz  x2-y2    tot
    1  0.231  0.002  0.000  0.007  0.000  0.000  0.268  0.000  0.000  0.508
    2  0.231  0.002  0.000  0.007  0.000  0.000  0.268  0.000  0.000  0.508
tot    0.462  0.004  0.000  0.013  0.000  0.000  0.536  0.000  0.000  1.016
 
band    14 # energy   35.48511406 # occ.  0.00000000
 
ion      s     py     pz     px    dxy    dyz    dz2    dxz  x2-y2    tot
    1  0.012  0.013  0.000  0.039  0.122  0.000  0.030  0.000  0.041  0.256
    2  0.012  0.013  0.000  0.039  0.122  0.000  0.030  0.000  0.041  0.256
tot    0.023  0.026  0.000  0.078  0.244  0.000  0.059  0.000  0.081  0.512
 
band    15 # energy   38.23035884 # occ.  0.00000000
 
ion      s     py     pz     px    dxy    dyz    dz2    dxz  x2-y2    tot
    1  0.025  0.025  0.000  0.076  0.095  0.000  0.049  0.000  0.032  0.301
    2  0.025  0.025  0.000  0.076  0.095  0.000  0.049  0.000  0.032  0.301
tot    0.050  0.050  0.000  0.151  0.189  0.000  0.099  0.000  0.063  0.602
 
band    16 # energy   38.89562905 # occ.  0.00000000
 
ion      s     py     pz     px    dxy    dyz    dz2    dxz  x2-y2    tot
    1  0.000  0.171  0.000  0.057  0.060  0.000  0.000  0.000  0.181  0.469
    2  0.000  0.171  0.000  0.057  0.060  0.000  0.000  0.000  0.181  0.469
tot    0.000  0.342  0.000  0.114  0.120  0.000  0.000  0.000  0.361  0.937
 
band    17 # energy   40.80596713 # occ.  0.00000000
 
ion      s     py     pz     px    dxy    dyz    dz2    dxz  x2-y2    tot
    1  0.000  0.000  0.008  0.000  0.000  0.013  0.000  0.038  0.000  0.059
    2  0.000  0.000  0.008  0.000  0.000  0.013  0.000  0.038  0.000  0.059
tot    0.000  0.000  0.016  0.000  0.000  0.026  0.000  0.077  0.000  0.118
 
band    18 # energy   41.78066445 # occ.  0.00000000
 
ion      s     py     pz     px    dxy    dyz    dz2    dxz  x2-y2    tot
    1  0.002  0.021  0.000  0.063  0.054  0.000  0.030  0.000  0.018  0.187
    2  0.002  0.021  0.000  0.063  0.054  0.000  0.030  0.000  0.018  0.187
tot    0.003  0.042  0.000  0.127  0.108  0.000  0.060  0.000  0.036  0.375
 
band    19 # energy   43.15501204 # occ.  0.00000000
 
ion      s     py     pz     px    dxy    dyz    dz2    dxz  x2-y2    tot
    1  0.000  0.000  0.028  0.000  0.000  0.033  0.000  0.099  0.000  0.160
    2  0.000  0.000  0.028  0.000  0.000  0.033  0.000  0.099  0.000  0.160
tot    0.000  0.000  0.055  0.000  0.000  0.066  0.000  0.198  0.000  0.319
 
band    20 # energy   45.23038103 # occ.  0.00000000
 
ion      s     py     pz     px    dxy    dyz    dz2    dxz  x2-y2    tot
    1  0.000  0.070  0.000  0.023  0.120  0.000  0.000  0.000  0.359  0.572
    2  0.000  0.070  0.000  0.023  0.120  0.000  0.000  0.000  0.359  0.572
tot    0.000  0.140  0.000  0.047  0.239  0.000  0.000  0.000  0.718  1.143
 
band    21 # energy   45.97238184 # occ.  0.00000000
 
ion      s     py     pz     px    dxy    dyz    dz2    dxz  x2-y2    tot
    1  0.015  0.030  0.000  0.089  0.227  0.000  0.003  0.000  0.076  0.441
    2  0.015  0.030  0.000  0.089  0.227  0.000  0.003  0.000  0.076  0.441
tot    0.031  0.059  0.000  0.178  0.455  0.000  0.007  0.000  0.152  0.882
 
band    22 # energy   46.22203009 # occ.  0.00000000
 
ion      s     py     pz     px    dxy    dyz    dz2    dxz  x2-y2    tot
    1  0.000  0.000  0.000  0.000  0.000  0.208  0.000  0.069  0.000  0.277
    2  0.000  0.000  0.000  0.000  0.000  0.208  0.000  0.069  0.000  0.277
tot    0.000  0.000  0.000  0.000  0.000  0.416  0.000  0.139  0.000  0.554
 
band    23 # energy   48.31500328 # occ.  0.00000000
 
ion      s     py     pz     px    dxy    dyz    dz2    dxz  x2-y2    tot
    1  0.017  0.008  0.000  0.023  0.035  0.000  0.674  0.000  0.012  0.769
    2  0.017  0.008  0.000  0.023  0.035  0.000  0.674  0.000  0.012  0.769
tot    0.033  0.015  0.000  0.046  0.070  0.000  1.349  0.000  0.023  1.537
 
band    24 # energy   48.65366859 # occ.  0.00000000
 
ion      s     py     pz     px    dxy    dyz    dz2    dxz  x2-y2    tot
    1  0.000  0.000  0.160  0.000  0.000  0.068  0.000  0.204  0.000  0.432
    2  0.000  0.000  0.160  0.000  0.000  0.068  0.000  0.204  0.000  0.432
tot    0.000  0.000  0.319  0.000  0.000  0.136  0.000  0.409  0.000  0.865
 

 k-point     3 :    0.16666667 0.00000000 0.00000000     weight = 0.00520833

band     1 # energy    4.24481194 # occ.  1.00000000
 
ion      s     py     pz     px    dxy    dyz    dz2    dxz  x2-y2    tot
    1  0.407  0.011  0.000  0.032  0.003  0.000  0.001  0.000  0.001  0.455
    2  0.407  0.011  0.000  0.032  0.003  0.000  0.001  0.000  0.001  0.455
tot    0.814  0.022  0.000  0.065  0.005  0.000  0.002  0.000  0.002  0.910
 
band     2 # energy    7.70344083 # occ.  1.00000000
 
ion      s     py     pz     px    dxy    dyz    dz2    dxz  x2-y2    tot
    1  0.064  0.006  0.000  0.017  0.022  0.000  0.373  0.000  0.007  0.489
    2  0.064  0.006  0.000  0.017  0.022  0.000  0.373  0.000  0.007  0.489
tot    0.128  0.011  0.000  0.034  0.043  0.000  0.747  0.000  0.014  0.977
 
band     3 # energy    9.63738205 # occ.  1.00000000
 
ion      s     py     pz     px    dxy    dyz    dz2    dxz  x2-y2    tot
    1  0.000  0.002  0.000  0.007  0.270  0.000  0.118  0.000  0.090  0.487
    2  0.000  0.002  0.000  0.007  0.270  0.000  0.118  0.000  0.090  0.487
tot    0.001  0.004  0.000  0.013  0.540  0.000  0.236  0.000  0.180  0.974
 
band     4 # energy   10.03372280 # occ.  1.00000000
 
ion      s     py     pz     px    dxy    dyz    dz2    dxz  x2-y2    tot
    1  0.000  0.000  0.092  0.000  0.000  0.095  0.000  0.285  0.000  0.473
    2  0.000  0.000  0.092  0.000  0.000  0.095  0.000  0.285  0.000  0.473
tot    0.000  0.000  0.185  0.000  0.000  0.190  0.000  0.571  0.000  0.946
 
band     5 # energy   10.47029247 # occ.  1.00000000
 
ion      s     py     pz     px    dxy    dyz    dz2    dxz  x2-y2    tot
    1  0.006  0.001  0.000  0.002  0.317  0.000  0.060  0.000  0.106  0.492
    2  0.006  0.001  0.000  0.002  0.317  0.000  0.060  0.000  0.106  0.492
tot    0.012  0.001  0.000  0.004  0.634  0.000  0.120  0.000  0.211  0.983
 
band     6 # energy   10.88963894 # occ.  1.00000000
 
ion      s     py     pz     px    dxy    dyz    dz2    dxz  x2-y2    tot
    1  0.000  0.000  0.000  0.000  0.000  0.370  0.000  0.123  0.000  0.493
    2  0.000  0.000  0.000  0.000  0.000  0.370  0.000  0.123  0.000  0.493
tot    0.000  0.000  0.000  0.000  0.000  0.739  0.000  0.246  0.000  0.986
 
band     7 # energy   10.90762961 # occ.  1.00000000
 
ion      s     py     pz     px    dxy    dyz    dz2    dxz  x2-y2    tot
    1  0.000  0.002  0.000  0.001  0.122  0.000  0.000  0.000  0.365  0.490
    2  0.000  0.002  0.000  0.001  0.122  0.000  0.000  0.000  0.365  0.490
tot    0.000  0.005  0.000  0.002  0.243  0.000  0.000  0.000  0.730  0.979
 
band     8 # energy   10.98539198 # occ.  1.00000000
 
ion      s     py     pz     px    dxy    dyz    dz2    dxz  x2-y2    tot
    1  0.002  0.001  0.000  0.002  0.115  0.000  0.335  0.000  0.038  0.493
    2  0.002  0.001  0.000  0.002  0.115  0.000  0.335  0.000  0.038  0.493
tot    0.004  0.001  0.000  0.003  0.230  0.000  0.670  0.000  0.077  0.985
 
band     9 # energy   11.15320083 # occ.  1.00000000
 
ion      s     py     pz     px    dxy    dyz    dz2    dxz  x2-y2    tot
    1  0.000  0.000  0.051  0.000  0.000  0.109  0.000  0.327  0.000  0.487
    2  0.000  0.000  0.051  0.000  0.000  0.109  0.000  0.327  0.000  0.487
tot    0.000  0.000  0.101  0.000  0.000  0.218  0.000  0.655  0.000  0.975
 
band    10 # energy   11.27284269 # occ.  1.00000000
 
ion      s     py     pz     px    dxy    dyz    dz2    dxz  x2-y2    tot
    1  0.000  0.002  0.000  0.001  0.123  0.000  0.000  0.000  0.368  0.493
    2  0.000  0.002  0.000  0.001  0.123  0.000  0.000  0.000  0.368  0.493
tot    0.000  0.005  0.000  0.002  0.245  0.000  0.000  0.000  0.735  0.987
 
band    11 # energy   12.84583384 # occ.  1.00000000
 
ion      s     py     pz     px    dxy    dyz    dz2    dxz  x2-y2    tot
    1  0.000  0.000  0.000  0.000  0.000  0.371  0.000  0.124  0.000  0.495
    2  0.000  0.000  0.000  0.000  0.000  0.371  0.000  0.124  0.000  0.495
tot    0.000  0.000  0.000  0.000  0.000  0.742  0.000  0.247  0.000  0.990
 
band    12 # energy   16.53281045 # occ.  0.00000000
 
ion      s     py     pz     px    dxy    dyz    dz2    dxz  x2-y2    tot
    1  0.000  0.000  0.275  0.000  0.000  0.049  0.000  0.147  0.000  0.471
    2  0.000  0.000  0.275  0.000  0.000  0.049  0.000  0.147  0.000  0.471
tot    0.000  0.000  0.550  0.000  0.000  0.098  0.000  0.294  0.000  0.941
 
band    13 # energy   21.62547711 # occ.  0.00000000
 
ion      s     py     pz     px    dxy    dyz    dz2    dxz  x2-y2    tot
    1  0.213  0.010  0.000  0.029  0.001  0.000  0.249  0.000  0.000  0.502
    2  0.213  0.010  0.000  0.029  0.001  0.000  0.249  0.000  0.000  0.502
tot    0.427  0.020  0.000  0.059  0.001  0.000  0.497  0.000  0.000  1.004
 
band    14 # energy   31.85271415 # occ.  0.00000000
 
ion      s     py     pz     px    dxy    dyz    dz2    dxz  x2-y2    tot
    1  0.041  0.035  0.000  0.104  0.165  0.000  0.027  0.000  0.055  0.427
    2  0.041  0.035  0.000  0.104  0.165  0.000  0.027  0.000  0.055  0.427
tot    0.081  0.069  0.000  0.208  0.331  0.000  0.054  0.000  0.110  0.854
 
band    15 # energy   36.16120812 # occ.  0.00000000
 
ion      s     py     pz     px    dxy    dyz    dz2    dxz  x2-y2    tot
    1  0.000  0.195  0.000  0.065  0.046  0.000  0.000  0.000  0.137  0.442
    2  0.000  0.195  0.000  0.065  0.046  0.000  0.000  0.000  0.137  0.442
tot    0.000  0.389  0.000  0.130  0.092  0.000  0.000  0.000  0.275  0.885
 
band    16 # energy   37.08808478 # occ.  0.00000000
 
ion      s     py     pz     px    dxy    dyz    dz2    dxz  x2-y2    tot
    1  0.023  0.007  0.000  0.022  0.173  0.000  0.057  0.000  0.058  0.340
    2  0.023  0.007  0.000  0.022  0.173  0.000  0.057  0.000  0.058  0.340
tot    0.047  0.015  0.000  0.044  0.345  0.000  0.113  0.000  0.115  0.680
 
band    17 # energy   39.04086434 # occ.  0.00000000
 
ion      s     py     pz     px    dxy    dyz    dz2    dxz  x2-y2    tot
    1  0.000  0.000  0.036  0.000  0.000  0.064  0.000  0.191  0.000  0.291
    2  0.000  0.000  0.036  0.000  0.000  0.064  0.000  0.191  0.000  0.291
tot    0.000  0.000  0.072  0.000  0.000  0.128  0.000  0.383  0.000  0.582
 
band    18 # energy   40.94827946 # occ.  0.00000000
 
ion      s     py     pz     px    dxy    dyz    dz2    dxz  x2-y2    tot
    1  0.000  0.000  0.008  0.000  0.000  0.016  0.000  0.048  0.000  0.073
    2  0.000  0.000  0.008  0.000  0.000  0.016  0.000  0.048  0.000  0.073
tot    0.000  0.000  0.017  0.000  0.000  0.032  0.000  0.097  0.000  0.146
 
band    19 # energy   42.79420559 # occ.  0.00000000
 
ion      s     py     pz     px    dxy    dyz    dz2    dxz  x2-y2    tot
    1  0.019  0.027  0.000  0.081  0.048  0.000  0.020  0.000  0.016  0.212
    2  0.019  0.027  0.000  0.081  0.048  0.000  0.020  0.000  0.016  0.212
tot    0.038  0.054  0.000  0.162  0.097  0.000  0.039  0.000  0.032  0.423
 
band    20 # energy   45.60888346 # occ.  0.00000000
 
ion      s     py     pz     px    dxy    dyz    dz2    dxz  x2-y2    tot
    1  0.000  0.000  0.000  0.000  0.000  0.333  0.000  0.111  0.000  0.444
    2  0.000  0.000  0.000  0.000  0.000  0.333  0.000  0.111  0.000  0.444
tot    0.000  0.000  0.000  0.000  0.000  0.666  0.000  0.222  0.000  0.888
 
band    21 # energy   45.92513471 # occ.  0.00000000
 
ion      s     py     pz     px    dxy    dyz    dz2    dxz  x2-y2    tot
    1  0.147  0.045  0.000  0.135  0.004  0.000  0.228  0.000  0.001  0.561
    2  0.147  0.045  0.000  0.135  0.004  0.000  0.228  0.000  0.001  0.561
tot    0.294  0.090  0.000  0.271  0.008  0.000  0.457  0.000  0.003  1.122
 
band    22 # energy   47.10440890 # occ.  0.00000000
 
ion      s     py     pz     px    dxy    dyz    dz2    dxz  x2-y2    tot
    1  0.000  0.000  0.218  0.000  0.000  0.019  0.000  0.058  0.000  0.295
    2  0.000  0.000  0.218  0.000  0.000  0.019  0.000  0.058  0.000  0.295
tot    0.000  0.000  0.436  0.000  0.000  0.038  0.000  0.115  0.000  0.589
 
band    23 # energy   47.47911333 # occ.  0.00000000
 
ion      s     py     pz     px    dxy    dyz    dz2    dxz  x2-y2    tot
    1  0.000  0.021  0.000  0.007  0.151  0.000  0.000  0.000  0.454  0.634
    2  0.000  0.021  0.000  0.007  0.151  0.000  0.000  0.000  0.454  0.634
tot    0.000  0.043  0.000  0.014  0.303  0.000  0.000  0.000  0.908  1.268
 
band    24 # energy   49.12874245 # occ.  0.00000000
 
ion      s     py     pz     px    dxy    dyz    dz2    dxz  x2-y2    tot
    1  1.532  0.002  0.000  0.005  0.037  0.000  0.250  0.000  0.012  1.838
    2  1.532  0.002  0.000  0.005  0.037  0.000  0.250  0.000  0.012  1.838
tot    3.065  0.003  0.000  0.010  0.074  0.000  0.500  0.000  0.025  3.677
 

 k-point     4 :    0.25000000 0.00000000 0.00000000     weight = 0.00520833

band     1 # energy    5.43577402 # occ.  1.00000000
 
ion      s     py     pz     px    dxy    dyz    dz2    dxz  x2-y2    tot
    1  0.345  0.020  0.000  0.061  0.019  0.000  0.006  0.000  0.006  0.458
    2  0.345  0.020  0.000  0.061  0.019  0.000  0.006  0.000  0.006  0.458
tot    0.691  0.041  0.000  0.122  0.037  0.000  0.013  0.000  0.012  0.916
 
band     2 # energy    8.02639892 # occ.  1.00000000
 
ion      s     py     pz     px    dxy    dyz    dz2    dxz  x2-y2    tot
    1  0.032  0.005  0.000  0.016  0.113  0.000  0.284  0.000  0.038  0.489
    2  0.032  0.005  0.000  0.016  0.113  0.000  0.284  0.000  0.038  0.489
tot    0.064  0.011  0.000  0.032  0.227  0.000  0.569  0.000  0.076  0.978
 
band     3 # energy    9.08425122 # occ.  1.00000000
 
ion      s     py     pz     px    dxy    dyz    dz2    dxz  x2-y2    tot
    1  0.000  0.000  0.074  0.000  0.000  0.099  0.000  0.298  0.000  0.472
    2  0.000  0.000  0.074  0.000  0.000  0.099  0.000  0.298  0.000  0.472
tot    0.000  0.000  0.149  0.000  0.000  0.199  0.000  0.596  0.000  0.944
 
band     4 # energy    9.41403729 # occ.  1.00000000
 
ion      s     py     pz     px    dxy    dyz    dz2    dxz  x2-y2    tot
    1  0.001  0.010  0.000  0.030  0.231  0.000  0.133  0.000  0.077  0.482
    2  0.001  0.010  0.000  0.030  0.231  0.000  0.133  0.000  0.077  0.482
tot    0.002  0.020  0.000  0.060  0.462  0.000  0.265  0.000  0.154  0.964
 
band     5 # energy   10.35135926 # occ.  1.00000000
 
ion      s     py     pz     px    dxy    dyz    dz2    dxz  x2-y2    tot
    1  0.014  0.002  0.000  0.006  0.251  0.000  0.133  0.000  0.084  0.490
    2  0.014  0.002  0.000  0.006  0.251  0.000  0.133  0.000  0.084  0.490
tot    0.027  0.004  0.000  0.013  0.502  0.000  0.267  0.000  0.167  0.981
 
band     6 # energy   10.60436167 # occ.  1.00000000
 
ion      s     py     pz     px    dxy    dyz    dz2    dxz  x2-y2    tot
    1  0.000  0.000  0.000  0.000  0.000  0.369  0.000  0.123  0.000  0.492
    2  0.000  0.000  0.000  0.000  0.000  0.369  0.000  0.123  0.000  0.492
tot    0.000  0.000  0.000  0.000  0.000  0.738  0.000  0.246  0.000  0.984
 
band     7 # energy   10.89513898 # occ.  1.00000000
 
ion      s     py     pz     px    dxy    dyz    dz2    dxz  x2-y2    tot
    1  0.000  0.000  0.042  0.000  0.000  0.112  0.000  0.335  0.000  0.488
    2  0.000  0.000  0.042  0.000  0.000  0.112  0.000  0.335  0.000  0.488
tot    0.000  0.000  0.083  0.000  0.000  0.223  0.000  0.670  0.000  0.977
 
band     8 # energy   11.52771156 # occ.  1.00000000
 
ion      s     py     pz     px    dxy    dyz    dz2    dxz  x2-y2    tot
    1  0.000  0.003  0.000  0.001  0.121  0.000  0.000  0.000  0.364  0.489
    2  0.000  0.003  0.000  0.001  0.121  0.000  0.000  0.000  0.364  0.489
tot    0.000  0.006  0.000  0.002  0.243  0.000  0.000  0.000  0.728  0.978
 
band     9 # energy   11.55524128 # occ.  1.00000000
 
ion      s     py     pz     px    dxy    dyz    dz2    dxz  x2-y2    tot
    1  0.008  0.003  0.000  0.008  0.101  0.000  0.339  0.000  0.034  0.491
    2  0.008  0.003  0.000  0.008  0.101  0.000  0.339  0.000  0.034  0.491
tot    0.015  0.005  0.000  0.015  0.202  0.000  0.677  0.000  0.067  0.983
 
band    10 # energy   11.81235462 # occ.  1.00000000
 
ion      s     py     pz     px    dxy    dyz    dz2    dxz  x2-y2    tot
    1  0.000  0.003  0.000  0.001  0.122  0.000  0.000  0.000  0.367  0.493
    2  0.000  0.003  0.000  0.001  0.122  0.000  0.000  0.000  0.367  0.493
tot    0.000  0.007  0.000  0.002  0.244  0.000  0.000  0.000  0.733  0.986
 
band    11 # energy   12.93196366 # occ.  1.00000000
 
ion      s     py     pz     px    dxy    dyz    dz2    dxz  x2-y2    tot