<?xml version="1.0" encoding="ISO-8859-1"?>
<modeling>
 <generator>
  <i name="program" type="string">vasp </i>
  <i name="version" type="string">6.3.2  </i>
  <i name="subversion" type="string">27Jun22 (build Aug 12 2022 00:53:59) complex                          parallel </i>
  <i name="platform" type="string">tv2STD </i>
  <i name="date" type="string">2024 12 03 </i>
  <i name="time" type="string">01:27:52 </i>
 </generator>
 <incar>
  <i type="string" name="SYSTEM">Co-hcc</i>
  <i type="int" name="ISTART">     0</i>
  <i type="string" name="PREC">Accurate      normal | accurate</i>
  <i type="string" name="ALGO">Normal     Normal, Fast, Very_Fast</i>
  <i type="logical" name="ADDGRID"> F  </i>
  <i type="int" name="ISPIN">     2</i>
  <i type="int" name="ICHARG">     2</i>
  <i type="int" name="INIWAV">     1</i>
  <i type="int" name="NELM">   100</i>
  <i type="int" name="IBRION">     2</i>
  <i name="EDIFF">      0.00000100</i>
  <i name="EDIFFG">     -0.02000000</i>
  <i type="int" name="NSW">   100</i>
  <i type="int" name="ISIF">     2</i>
  <i type="int" name="ISYM">     1</i>
  <i name="ENCUT">    425.00000000</i>
  <v name="MAGMOM">      3.00000000      3.00000000</v>
  <i type="logical" name="LREAL"> F  </i>
  <i type="int" name="ISMEAR">     0</i>
  <i name="SIGMA">      0.05000000</i>
  <i type="int" name="NWRITE">     2</i>
  <i type="logical" name="LWAVE"> F  </i>
  <i type="logical" name="LCHARG"> F  </i>
  <i type="int" name="LORBIT">    11</i>
 </incar>
 <primitive_cell>
  <structure name="primitive_cell" >
   <crystal>
    <varray name="basis" >
     <v>       1.17136954      -2.02887155       0.00000000 </v>
     <v>       1.17136954       2.02887155       0.00000000 </v>
     <v>       0.00000000       0.00000000       3.77894892 </v>
    </varray>
    <i name="volume">     17.96178508 </i>
    <varray name="rec_basis" >
     <v>       0.42685078      -0.24644241       0.00000000 </v>
     <v>       0.42685078       0.24644241       0.00000000 </v>
     <v>       0.00000000       0.00000000       0.26462385 </v>
    </varray>
   </crystal>
   <varray name="positions" >
    <v>       0.33333333       0.66666667       0.25000000 </v>
    <v>       0.66666667       0.33333333       0.75000000 </v>
   </varray>
  </structure>
  <varray name="primitive_index" >
   <v type="int" >        1 </v>
   <v type="int" >        2 </v>
  </varray>
 </primitive_cell>
 <kpoints>
  <generation param="Gamma">
   <v type="int" name="divisions">      12       12        8 </v>
   <v name="usershift">      0.00000000       0.00000000       0.00000000 </v>
   <v name="genvec1">      0.08333333       0.00000000       0.00000000 </v>
   <v name="genvec2">      0.00000000       0.08333333       0.00000000 </v>
   <v name="genvec3">      0.00000000       0.00000000       0.12500000 </v>
   <v name="shift">      0.00000000       0.00000000       0.00000000 </v>
  </generation>
  <varray name="kpointlist" >
   <v>       0.00000000       0.00000000       0.00000000 </v>
   <v>       0.08333333       0.00000000       0.00000000 </v>
   <v>       0.16666667       0.00000000       0.00000000 </v>
   <v>       0.25000000       0.00000000       0.00000000 </v>
   <v>       0.33333333      -0.00000000       0.00000000 </v>
   <v>       0.41666667       0.00000000       0.00000000 </v>
   <v>       0.50000000       0.00000000       0.00000000 </v>
   <v>       0.08333333       0.08333333       0.00000000 </v>
   <v>       0.16666667       0.08333333       0.00000000 </v>
   <v>       0.25000000       0.08333333       0.00000000 </v>
   <v>       0.33333333       0.08333333       0.00000000 </v>
   <v>       0.41666667       0.08333333       0.00000000 </v>
   <v>       0.16666667       0.16666667       0.00000000 </v>
   <v>       0.25000000       0.16666667       0.00000000 </v>
   <v>       0.33333333       0.16666667       0.00000000 </v>
   <v>       0.41666667       0.16666667       0.00000000 </v>
   <v>       0.25000000       0.25000000       0.00000000 </v>
   <v>       0.33333333       0.25000000       0.00000000 </v>
   <v>       0.33333333       0.33333333       0.00000000 </v>
   <v>       0.00000000       0.00000000       0.12500000 </v>
   <v>       0.08333333       0.00000000       0.12500000 </v>
   <v>       0.16666667       0.00000000       0.12500000 </v>
   <v>       0.25000000       0.00000000       0.12500000 </v>
   <v>       0.33333333      -0.00000000       0.12500000 </v>
   <v>       0.41666667       0.00000000       0.12500000 </v>
   <v>       0.50000000       0.00000000       0.12500000 </v>
   <v>       0.08333333       0.08333333       0.12500000 </v>
   <v>       0.16666667       0.08333333       0.12500000 </v>
   <v>       0.25000000       0.08333333       0.12500000 </v>
   <v>       0.33333333       0.08333333       0.12500000 </v>
   <v>       0.41666667       0.08333333       0.12500000 </v>
   <v>       0.16666667       0.16666667       0.12500000 </v>
   <v>       0.25000000       0.16666667       0.12500000 </v>
   <v>       0.33333333       0.16666667       0.12500000 </v>
   <v>       0.41666667       0.16666667       0.12500000 </v>
   <v>       0.25000000       0.25000000       0.12500000 </v>
   <v>       0.33333333       0.25000000       0.12500000 </v>
   <v>       0.33333333       0.33333333       0.12500000 </v>
   <v>       0.00000000       0.00000000       0.25000000 </v>
   <v>       0.08333333       0.00000000       0.25000000 </v>
   <v>       0.16666667       0.00000000       0.25000000 </v>
   <v>       0.25000000       0.00000000       0.25000000 </v>
   <v>       0.33333333      -0.00000000       0.25000000 </v>
   <v>       0.41666667       0.00000000       0.25000000 </v>
   <v>       0.50000000       0.00000000       0.25000000 </v>
   <v>       0.08333333       0.08333333       0.25000000 </v>
   <v>       0.16666667       0.08333333       0.25000000 </v>
   <v>       0.25000000       0.08333333       0.25000000 </v>
   <v>       0.33333333       0.08333333       0.25000000 </v>
   <v>       0.41666667       0.08333333       0.25000000 </v>
   <v>       0.16666667       0.16666667       0.25000000 </v>
   <v>       0.25000000       0.16666667       0.25000000 </v>
   <v>       0.33333333       0.16666667       0.25000000 </v>
   <v>       0.41666667       0.16666667       0.25000000 </v>
   <v>       0.25000000       0.25000000       0.25000000 </v>
   <v>       0.33333333       0.25000000       0.25000000 </v>
   <v>       0.33333333       0.33333333       0.25000000 </v>
   <v>       0.00000000       0.00000000       0.37500000 </v>
   <v>       0.08333333       0.00000000       0.37500000 </v>
   <v>       0.16666667       0.00000000       0.37500000 </v>
   <v>       0.25000000       0.00000000       0.37500000 </v>
   <v>       0.33333333      -0.00000000       0.37500000 </v>
   <v>       0.41666667       0.00000000       0.37500000 </v>
   <v>       0.50000000       0.00000000       0.37500000 </v>
   <v>       0.08333333       0.08333333       0.37500000 </v>
   <v>       0.16666667       0.08333333       0.37500000 </v>
   <v>       0.25000000       0.08333333       0.37500000 </v>
   <v>       0.33333333       0.08333333       0.37500000 </v>
   <v>       0.41666667       0.08333333       0.37500000 </v>
   <v>       0.16666667       0.16666667       0.37500000 </v>
   <v>       0.25000000       0.16666667       0.37500000 </v>
   <v>       0.33333333       0.16666667       0.37500000 </v>
   <v>       0.41666667       0.16666667       0.37500000 </v>
   <v>       0.25000000       0.25000000       0.37500000 </v>
   <v>       0.33333333       0.25000000       0.37500000 </v>
   <v>       0.33333333       0.33333333       0.37500000 </v>
   <v>       0.00000000       0.00000000       0.50000000 </v>
   <v>       0.08333333       0.00000000       0.50000000 </v>
   <v>       0.16666667       0.00000000       0.50000000 </v>
   <v>       0.25000000       0.00000000       0.50000000 </v>
   <v>       0.33333333      -0.00000000       0.50000000 </v>
   <v>       0.41666667       0.00000000       0.50000000 </v>
   <v>       0.50000000       0.00000000       0.50000000 </v>
   <v>       0.08333333       0.08333333       0.50000000 </v>
   <v>       0.16666667       0.08333333       0.50000000 </v>
   <v>       0.25000000       0.08333333       0.50000000 </v>
   <v>       0.33333333       0.08333333       0.50000000 </v>
   <v>       0.41666667       0.08333333       0.50000000 </v>
   <v>       0.16666667       0.16666667       0.50000000 </v>
   <v>       0.25000000       0.16666667       0.50000000 </v>
   <v>       0.33333333       0.16666667       0.50000000 </v>
   <v>       0.41666667       0.16666667       0.50000000 </v>
   <v>       0.25000000       0.25000000       0.50000000 </v>
   <v>       0.33333333       0.25000000       0.50000000 </v>
   <v>       0.33333333       0.33333333       0.50000000 </v>
  </varray>
  <varray name="weights" >
   <v>       0.00086806 </v>
   <v>       0.00520833 </v>
   <v>       0.00520833 </v>
   <v>       0.00520833 </v>
   <v>       0.00520833 </v>
   <v>       0.00520833 </v>
   <v>       0.00260417 </v>
   <v>       0.00520833 </v>
   <v>       0.01041667 </v>
   <v>       0.01041667 </v>
   <v>       0.01041667 </v>
   <v>       0.01041667 </v>
   <v>       0.00520833 </v>
   <v>       0.01041667 </v>
   <v>       0.01041667 </v>
   <v>       0.00520833 </v>
   <v>       0.00520833 </v>
   <v>       0.01041667 </v>
   <v>       0.00173611 </v>
   <v>       0.00173611 </v>
   <v>       0.01041667 </v>
   <v>       0.01041667 </v>
   <v>       0.01041667 </v>
   <v>       0.01041667 </v>
   <v>       0.01041667 </v>
   <v>       0.00520833 </v>
   <v>       0.01041667 </v>
   <v>       0.02083333 </v>
   <v>       0.02083333 </v>
   <v>       0.02083333 </v>
   <v>       0.02083333 </v>
   <v>       0.01041667 </v>
   <v>       0.02083333 </v>
   <v>       0.02083333 </v>
   <v>       0.01041667 </v>
   <v>       0.01041667 </v>
   <v>       0.02083333 </v>
   <v>       0.00347222 </v>
   <v>       0.00173611 </v>
   <v>       0.01041667 </v>
   <v>       0.01041667 </v>
   <v>       0.01041667 </v>
   <v>       0.01041667 </v>
   <v>       0.01041667 </v>
   <v>       0.00520833 </v>
   <v>       0.01041667 </v>
   <v>       0.02083333 </v>
   <v>       0.02083333 </v>
   <v>       0.02083333 </v>
   <v>       0.02083333 </v>
   <v>       0.01041667 </v>
   <v>       0.02083333 </v>
   <v>       0.02083333 </v>
   <v>       0.01041667 </v>
   <v>       0.01041667 </v>
   <v>       0.02083333 </v>
   <v>       0.00347222 </v>
   <v>       0.00173611 </v>
   <v>       0.01041667 </v>
   <v>       0.01041667 </v>
   <v>       0.01041667 </v>
   <v>       0.01041667 </v>
   <v>       0.01041667 </v>
   <v>       0.00520833 </v>
   <v>       0.01041667 </v>
   <v>       0.02083333 </v>
   <v>       0.02083333 </v>
   <v>       0.02083333 </v>
   <v>       0.02083333 </v>
   <v>       0.01041667 </v>
   <v>       0.02083333 </v>
   <v>       0.02083333 </v>
   <v>       0.01041667 </v>
   <v>       0.01041667 </v>
   <v>       0.02083333 </v>
   <v>       0.00347222 </v>
   <v>       0.00086806 </v>
   <v>       0.00520833 </v>
   <v>       0.00520833 </v>
   <v>       0.00520833 </v>
   <v>       0.00520833 </v>
   <v>       0.00520833 </v>
   <v>       0.00260417 </v>
   <v>       0.00520833 </v>
   <v>       0.01041667 </v>
   <v>       0.01041667 </v>
   <v>       0.01041667 </v>
   <v>       0.01041667 </v>
   <v>       0.00520833 </v>
   <v>       0.01041667 </v>
   <v>       0.01041667 </v>
   <v>       0.00520833 </v>
   <v>       0.00520833 </v>
   <v>       0.01041667 </v>
   <v>       0.00173611 </v>
  </varray>
 </kpoints>
 <parameters>
  <separator name="general" >
   <i type="string" name="SYSTEM">Co-hcc</i>
   <i type="logical" name="LCOMPAT"> F  </i>
  </separator>
  <separator name="electronic" >
   <i type="string" name="PREC">accura</i>
   <i name="ENMAX">    425.00000000</i>
   <i name="ENAUG">    477.81800000</i>
   <i name="EDIFF">      0.00000100</i>
   <i type="int" name="IALGO">    38</i>
   <i type="int" name="IWAVPR">    11</i>
   <i type="int" name="NBANDS">    24</i>
   <i type="int" name="NBANDSLOW">    -1</i>
   <i type="int" name="NBANDSHIGH">    -1</i>
   <i name="NELECT">     18.00000000</i>
   <i type="int" name="TURBO">     0</i>
   <i type="int" name="IRESTART">     0</i>
   <i type="int" name="NREBOOT">     0</i>
   <i type="int" name="NMIN">     0</i>
   <i name="EREF">      0.00000000</i>
   <separator name="electronic smearing" >
    <i type="int" name="ISMEAR">     0</i>
    <i name="SIGMA">      0.05000000</i>
    <i name="KSPACING">      0.50000000</i>
    <i type="logical" name="KGAMMA"> T  </i>
    <i type="logical" name="KBLOWUP"> T  </i>
   </separator>
   <separator name="electronic projectors" >
    <i type="logical" name="LREAL"> F  </i>
    <v name="ROPT">      0.00000000</v>
    <i type="int" name="LMAXPAW">  -100</i>
    <i type="int" name="LMAXMIX">     2</i>
    <i type="logical" name="NLSPLINE"> F  </i>
   </separator>
   <separator name="electronic startup" >
    <i type="int" name="ISTART">     0</i>
    <i type="int" name="ICHARG">     2</i>
    <i type="int" name="INIWAV">     1</i>
   </separator>
   <separator name="electronic spin" >
    <i type="int" name="ISPIN">     2</i>
    <i type="logical" name="LNONCOLLINEAR"> F  </i>
    <v name="MAGMOM">      3.00000000      3.00000000</v>
    <i name="NUPDOWN">     -1.00000000</i>
    <i type="logical" name="LSORBIT"> F  </i>
    <v name="SAXIS">      0.00000000      0.00000000      1.00000000</v>
    <i type="logical" name="LSPIRAL"> F  </i>
    <v name="QSPIRAL">      0.00000000      0.00000000      0.00000000</v>
    <i type="logical" name="LZEROZ"> F  </i>
   </separator>
   <separator name="electronic exchange-correlation" >
    <i type="logical" name="LASPH"> F  </i>
    <i type="logical" name="LMETAGGA"> F  </i>
   </separator>
   <separator name="electronic convergence" >
    <i type="int" name="NELM">   100</i>
    <i type="int" name="NELMDL">    -5</i>
    <i type="int" name="NELMIN">     2</i>
    <i name="ENINI">    425.00000000</i>
    <separator name="electronic convergence detail" >
     <i type="logical" name="LDIAG"> T  </i>
     <i type="logical" name="LSUBROT"> F  </i>
     <i name="WEIMIN">      0.00100000</i>
     <i name="EBREAK">      0.00000001</i>
     <i name="DEPER">      0.30000000</i>
     <i type="int" name="NRMM">     4</i>
     <i name="TIME">      0.40000000</i>
    </separator>
   </separator>
   <separator name="electronic mixer" >
    <i name="AMIX">      0.40000000</i>
    <i name="BMIX">      1.00000000</i>
    <i name="AMIN">      0.10000000</i>
    <i name="AMIX_MAG">      1.60000000</i>
    <i name="BMIX_MAG">      1.00000000</i>
    <separator name="electronic mixer details" >
     <i type="int" name="IMIX">     4</i>
     <i type="logical" name="MIXFIRST"> F  </i>
     <i type="int" name="MAXMIX">   -45</i>
     <i name="WC">    100.00000000</i>
     <i type="int" name="INIMIX">     1</i>
     <i type="int" name="MIXPRE">     1</i>
     <i type="int" name="MREMOVE">     5</i>
    </separator>
   </separator>
   <separator name="electronic dipolcorrection" >
    <i type="logical" name="LDIPOL"> F  </i>
    <i type="logical" name="LMONO"> F  </i>
    <i type="int" name="IDIPOL">     0</i>
    <i name="EPSILON">      1.00000000</i>
    <v name="DIPOL">   -100.00000000   -100.00000000   -100.00000000</v>
    <i name="EFIELD">      0.00000000</i>
   </separator>
  </separator>
  <separator name="grids" >
   <i type="int" name="NGX">    16</i>
   <i type="int" name="NGY">    16</i>
   <i type="int" name="NGZ">    28</i>
   <i type="int" name="NGXF">    32</i>
   <i type="int" name="NGYF">    32</i>
   <i type="int" name="NGZF">    56</i>
   <i type="logical" name="ADDGRID"> F  </i>
  </separator>
  <separator name="ionic" >
   <i type="int" name="NSW">   100</i>
   <i type="int" name="IBRION">     2</i>
   <i type="int" name="MDALGO">     0</i>
   <i type="int" name="ISIF">     2</i>
   <i name="PSTRESS">      0.00000000</i>
   <i name="EDIFFG">     -0.02000000</i>
   <i type="int" name="NFREE">     1</i>
   <i name="POTIM">      0.50000000</i>
   <i name="SMASS">     -3.00000000</i>
   <i name="SCALEE">      1.00000000</i>
  </separator>
  <separator name="ionic md" >
   <i name="TEBEG">      0.00010000</i>
   <i name="TEEND">      0.00010000</i>
   <i type="int" name="NBLOCK">     1</i>
   <i type="int" name="KBLOCK">   100</i>
   <i type="int" name="NPACO">   256</i>
   <i name="APACO">     10.00000000</i>
  </separator>
  <separator name="symmetry" >
   <i type="int" name="ISYM">     1</i>
   <i name="SYMPREC">      0.00001000</i>
  </separator>
  <separator name="dos" >
   <i type="int" name="LORBIT">    11</i>
   <v name="RWIGS">     -1.00000000</v>
   <i type="int" name="NEDOS">   301</i>
   <i name="EMIN">     10.00000000</i>
   <i name="EMAX">    -10.00000000</i>
   <i name="EFERMI">      0.00000000</i>
  </separator>
  <separator name="writing" >
   <i type="int" name="NWRITE">     2</i>
   <i type="logical" name="LWAVE"> F  </i>
   <i type="logical" name="LDOWNSAMPLE"> F  </i>
   <i type="logical" name="LCHARG"> F  </i>
   <i type="logical" name="LPARD"> F  </i>
   <i type="logical" name="LVTOT"> F  </i>
   <i type="logical" name="LVHAR"> F  </i>
   <i type="logical" name="LELF"> F  </i>
   <i type="logical" name="LOPTICS"> F  </i>
   <v name="STM">      0.00000000      0.00000000      0.00000000      0.00000000      0.00000000      0.00000000      0.00000000</v>
  </separator>
  <separator name="performance" >
   <i type="int" name="NPAR">    24</i>
   <i type="int" name="NSIM">     4</i>
   <i type="int" name="NBLK">    -1</i>
   <i type="logical" name="LPLANE"> T  </i>
   <i type="logical" name="LSCALAPACK"> T  </i>
   <i type="logical" name="LSCAAWARE"> T  </i>
   <i type="logical" name="LSCALU"> F  </i>
   <i type="logical" name="LASYNC"> F  </i>
   <i type="logical" name="LORBITALREAL"> F  </i>
  </separator>
  <separator name="miscellaneous" >
   <i type="int" name="IDIOT">     3</i>
   <i type="int" name="PHON_NSTRUCT">    -1</i>
   <i type="logical" name="LMUSIC"> F  </i>
   <v name="POMASS">     58.93300000</v>
   <v name="DARWINR">      0.00000000</v>
   <v name="DARWINV">      1.00000000</v>
   <i type="logical" name="LCORR"> T  </i>
  </separator>
  <i type="logical" name="GGA_COMPAT"> T  </i>
  <i type="logical" name="LBERRY"> F  </i>
  <i type="int" name="ICORELEVEL">     0</i>
  <i type="logical" name="LDAU"> F  </i>
  <i type="int" name="I_CONSTRAINED_M">     0</i>
  <separator name="electronic exchange-correlation" >
   <i type="string" name="GGA">--</i>
   <i type="int" name="VOSKOWN">     0</i>
   <i type="logical" name="LHFCALC"> F  </i>
   <i type="string" name="PRECFOCK"></i>
   <i type="logical" name="LSYMGRAD"> F  </i>
   <i type="logical" name="LHFONE"> F  </i>
   <i type="logical" name="LRHFCALC"> F  </i>
   <i type="logical" name="LTHOMAS"> F  </i>
   <i type="logical" name="LMODELHF"> F  </i>
   <i type="logical" name="LFOCKACE"> F  </i>
   <i name="ENCUT4O">     -1.00000000</i>
   <i type="int" name="EXXOEP">     0</i>
   <i type="int" name="FOURORBIT">     0</i>
   <i name="AEXX">      0.00000000</i>
   <i name="HFALPHA">      0.00000000</i>
   <i name="MCALPHA">      0.00000000</i>
   <i name="ALDAX">      1.00000000</i>
   <i name="AGGAX">      1.00000000</i>
   <i name="ALDAC">      1.00000000</i>
   <i name="AGGAC">      1.00000000</i>
   <i type="int" name="NKREDX">     1</i>
   <i type="int" name="NKREDY">     1</i>
   <i type="int" name="NKREDZ">     1</i>
   <i type="logical" name="SHIFTRED"> F  </i>
   <i type="logical" name="ODDONLY"> F  </i>
   <i type="logical" name="EVENONLY"> F  </i>
   <i type="int" name="LMAXFOCK">     0</i>
   <i type="int" name="NMAXFOCKAE">     0</i>
   <i type="logical" name="LFOCKAEDFT"> F  </i>
   <i name="HFSCREEN">      0.00000000</i>
   <i name="HFSCREENC">      0.00000000</i>
   <i type="int" name="NBANDSGWLOW">     0</i>
  </separator>
  <separator name="vdW DFT" >
   <i type="logical" name="LUSE_VDW"> F  </i>
   <i name="Zab_VDW">     -0.84910000</i>
   <i name="PARAM1">      0.12340000</i>
   <i name="PARAM2">      1.00000000</i>
   <i name="PARAM3">      0.00000000</i>
  </separator>
  <separator name="model GW" >
   <i type="int" name="MODEL_GW">     0</i>
   <i name="MODEL_EPS0">      5.38853552</i>
   <i name="MODEL_ALPHA">      1.00000000</i>
  </separator>
  <separator name="linear response parameters" >
   <i type="logical" name="LEPSILON"> F  </i>
   <i type="logical" name="LRPA"> F  </i>
   <i type="logical" name="LNABLA"> F  </i>
   <i type="logical" name="LVEL"> F  </i>
   <i name="CSHIFT">      0.10000000</i>
   <i name="OMEGAMAX">     -1.00000000</i>
   <i name="DEG_THRESHOLD">      0.00200000</i>
   <i name="RTIME">     -0.10000000</i>
   <i name="WPLASMAI">      0.00000000</i>
   <v name="DFIELD">      0.00000000      0.00000000      0.00000000</v>
   <v name="WPLASMA">      0.00000000      0.00000000      0.00000000      0.00000000      0.00000000      0.00000000      0.00000000      0.00000000      0.00000000</v>
  </separator>
  <separator name="orbital magnetization" >
   <i type="logical" name="NUCIND"> F  </i>
   <v name="MAGPOS">      0.00000000      0.00000000      0.00000000</v>
   <i type="logical" name="LNICSALL"> T  </i>
   <i type="logical" name="ORBITALMAG"> F  </i>
   <i type="logical" name="LMAGBLOCH"> F  </i>
   <i type="logical" name="LCHIMAG"> F  </i>
   <i type="logical" name="LGAUGE"> T  </i>
   <i type="int" name="MAGATOM">     0</i>
   <v name="MAGDIPOL">      0.00000000      0.00000000      0.00000000</v>
   <v name="AVECCONST">      0.00000000      0.00000000      0.00000000</v>
  </separator>
  <separator name="response functions" >
   <i type="logical" name="LFINITE_TEMPERATURE"> F  </i>
   <i type="logical" name="LADDER"> F  </i>
   <i type="logical" name="LRPAFORCE"> F  </i>
   <i type="logical" name="LFXC"> F  </i>
   <i type="logical" name="LHARTREE"> T  </i>
   <i type="int" name="IBSE">     0</i>
   <v type="int" name="KPOINT">    -1     0     0     0</v>
   <i type="logical" name="LTCTC"> F  </i>
   <i type="logical" name="LTCTE"> F  </i>
   <i type="logical" name="LTETE"> F  </i>
   <i type="logical" name="LTRIPLET"> F  </i>
   <i type="logical" name="LFXCEPS"> F  </i>
   <i type="logical" name="LFXHEG"> F  </i>
   <i type="int" name="NATURALO">     2</i>
   <i type="logical" name="LHOLEGF"> F  </i>
   <i type="logical" name="L2ORDER"> F  </i>
   <i type="logical" name="LDMP1"> F  </i>
   <i type="logical" name="LMP2LT"> F  </i>
   <i type="logical" name="LSMP2LT"> F  </i>
   <i type="logical" name="LGWLF"> F  </i>
   <i name="ENCUTGW">     -2.00000000</i>
   <i name="ENCUTGWSOFT">     -2.00000000</i>
   <i name="ENCUTLF">     -1.00000000</i>
   <i type="logical" name="LESF_SPLINES"> F  </i>
   <i type="int" name="LMAXMP2">    -1</i>
   <i name="SCISSOR">      0.00000000</i>
   <i type="int" name="NOMEGA">     0</i>
   <i type="int" name="NOMEGAR">     0</i>
   <i type="int" name="NBANDSGW">    -1</i>
   <i type="int" name="NBANDSO">    -1</i>
   <i type="int" name="NBANDSV">    -1</i>
   <i type="int" name="NELMGW">     1</i>
   <i type="int" name="NELMHF">     1</i>
   <i type="int" name="DIM">     3</i>
   <i type="int" name="IESPILON">     4</i>
   <i type="int" name="ANTIRES">     0</i>
   <i name="OMEGAMAX">    -30.00000000</i>
   <i name="OMEGAMIN">    -30.00000000</i>
   <i name="OMEGATL">   -200.00000000</i>
   <i type="int" name="OMEGAGRID">     0</i>
   <i name="CSHIFT">     -0.10000000</i>
   <i type="logical" name="LSELFENERGY"> F  </i>
   <i type="logical" name="LSPECTRAL"> F  </i>
   <i type="logical" name="LSPECTRALGW"> F  </i>
   <i type="logical" name="LSINGLES"> F  </i>
   <i type="logical" name="LFERMIGW"> F  </i>
   <i type="logical" name="ODDONLYGW"> F  </i>
   <i type="logical" name="EVENONLYGW"> F  </i>
   <i type="int" name="NKREDLFX">     1</i>
   <i type="int" name="NKREDLFY">     1</i>
   <i type="int" name="NKREDLFZ">     1</i>
   <i type="int" name="MAXMEM">  2800</i>
   <i type="int" name="TELESCOPE">     0</i>
   <i type="int" name="NTAUPAR">    -1</i>
   <i type="int" name="NOMEGAPAR">    -1</i>
   <i name="DAMP_NEWTON">      0.80000001</i>
   <i name="LAMBDA">      1.00000000</i>
  </separator>
  <separator name="External order field" >
   <i name="OFIELD_KAPPA">      0.00000000</i>
   <v name="OFIELD_K">      0.00000000      0.00000000      0.00000000</v>
   <i name="OFIELD_Q6_NEAR">      0.00000000</i>
   <i name="OFIELD_Q6_FAR">      0.00000000</i>
   <i name="OFIELD_A">      0.00000000</i>
  </separator>
  <separator name="optional k-points parameters" >
   <i type="int" name="KPOINTS_OPT_MODE">     1</i>
   <i type="logical" name="LKPOINTS_OPT"> F  </i>
  </separator>
 </parameters>
 <atominfo>
  <atoms>       2 </atoms>
  <types>       1 </types>
  <array name="atoms" >
   <dimension dim="1">ion</dimension>
   <field type="string">element</field>
   <field type="int">atomtype</field>
   <set>
    <rc><c>Co</c><c>   1</c></rc>
    <rc><c>Co</c><c>   1</c></rc>
   </set>
  </array>
  <array name="atomtypes" >
   <dimension dim="1">type</dimension>
   <field type="int">atomspertype</field>
   <field type="string">element</field>
   <field>mass</field>
   <field>valence</field>
   <field type="string">pseudopotential</field>
   <set>
    <rc><c>   2</c><c>Co</c><c>     58.93300000</c><c>      9.00000000</c><c>  PAW_PBE Co 02Aug2007                  </c></rc>
   </set>
  </array>
 </atominfo>
 <structure name="initialpos" >
  <crystal>
   <varray name="basis" >
    <v>       1.17136954      -2.02887155       0.00000000 </v>
    <v>       1.17136954       2.02887155       0.00000000 </v>
    <v>       0.00000000       0.00000000       3.77894892 </v>
   </varray>
   <i name="volume">     17.96178508 </i>
   <varray name="rec_basis" >
    <v>       0.42685078      -0.24644241       0.00000000 </v>
    <v>       0.42685078       0.24644241       0.00000000 </v>
    <v>       0.00000000       0.00000000       0.26462385 </v>
   </varray>
  </crystal>
  <varray name="positions" >
   <v>       0.33333333       0.66666667       0.25000000 </v>
   <v>       0.66666667       0.33333333       0.75000000 </v>
  </varray>
 </structure>
 <calculation>
  <scstep>
   <time name="dav">    0.70    0.71</time>
   <time name="total">    0.71    0.72</time>
   <energy>
    <i name="alphaZ">     94.32846617 </i>
    <i name="ewald">  -1620.61121812 </i>
    <i name="hartreedc">   -260.58919762 </i>
    <i name="XCdc">     36.96754808 </i>
    <i name="pawpsdc">   1439.98163886 </i>
    <i name="pawaedc">  -1545.88690193 </i>
    <i name="eentropy">     -0.00213526 </i>
    <i name="bandstr">    231.79772844 </i>
    <i name="atom">   1626.72322989 </i>
    <i name="e_fr_energy">      2.70915852 </i>
    <i name="e_wo_entrp">      2.71129378 </i>
    <i name="e_0_energy">      2.71022615 </i>
   </energy>
  </scstep>
  <scstep>
   <time name="dav">    0.98    0.99</time>
   <time name="total">    0.98    0.99</time>
   <energy>
    <i name="e_fr_energy">    -14.49432524 </i>
    <i name="e_wo_entrp">    -14.49179039 </i>
    <i name="e_0_energy">    -14.49305782 </i>
   </energy>
  </scstep>
  <scstep>
   <time name="dav">    1.17    1.18</time>
   <time name="total">    1.17    1.18</time>
   <energy>
    <i name="e_fr_energy">    -14.59533589 </i>
    <i name="e_wo_entrp">    -14.59283129 </i>
    <i name="e_0_energy">    -14.59408359 </i>
   </energy>
  </scstep>
  <scstep>
   <time name="dav">    1.48    1.48</time>
   <time name="total">    1.48    1.49</time>
   <energy>
    <i name="e_fr_energy">    -14.59564229 </i>
    <i name="e_wo_entrp">    -14.59313676 </i>
    <i name="e_0_energy">    -14.59438953 </i>
   </energy>
  </scstep>
  <scstep>
   <time name="dav">    1.32    1.32</time>
   <time name="total">    1.34    1.35</time>
   <energy>
    <i name="e_fr_energy">    -14.59564232 </i>
    <i name="e_wo_entrp">    -14.59313680 </i>
    <i name="e_0_energy">    -14.59438956 </i>
   </energy>
  </scstep>
  <scstep>
   <time name="dav">    2.03    2.04</time>
   <time name="total">    2.07    2.08</time>
   <energy>
    <i name="e_fr_energy">    -13.67972465 </i>
    <i name="e_wo_entrp">    -13.67744468 </i>
    <i name="e_0_energy">    -13.67858467 </i>
   </energy>
  </scstep>
  <scstep>
   <time name="dav">    1.70    1.71</time>
   <time name="total">    1.74    1.75</time>
   <energy>
    <i name="e_fr_energy">    -13.53107939 </i>
    <i name="e_wo_entrp">    -13.52930146 </i>
    <i name="e_0_energy">    -13.53019042 </i>
   </energy>
  </scstep>
  <scstep>
   <time name="dav">    2.17    2.18</time>
   <time name="total">    2.20    2.21</time>
   <energy>
    <i name="e_fr_energy">    -13.48997972 </i>
    <i name="e_wo_entrp">    -13.48831966 </i>
    <i name="e_0_energy">    -13.48914969 </i>
   </energy>
  </scstep>
  <scstep>
   <time name="dav">    2.17    2.18</time>
   <time name="total">    2.20    2.21</time>
   <energy>
    <i name="e_fr_energy">    -13.48143119 </i>
    <i name="e_wo_entrp">    -13.47974631 </i>
    <i name="e_0_energy">    -13.48058875 </i>
   </energy>
  </scstep>
  <scstep>
   <time name="dav">    2.00    2.01</time>
   <time name="total">    2.03    2.04</time>
   <energy>
    <i name="e_fr_energy">    -13.48102648 </i>
    <i name="e_wo_entrp">    -13.47932767 </i>
    <i name="e_0_energy">    -13.48017708 </i>
   </energy>
  </scstep>
  <scstep>
   <time name="dav">    1.75    1.76</time>
   <time name="total">    1.79    1.79</time>
   <energy>
    <i name="e_fr_energy">    -13.48102466 </i>
    <i name="e_wo_entrp">    -13.47932037 </i>
    <i name="e_0_energy">    -13.48017252 </i>
   </energy>
  </scstep>
  <scstep>
   <time name="dav">    1.89    1.90</time>
   <time name="total">    1.90    1.91</time>
   <energy>
    <i name="alphaZ">     94.32846617 </i>
    <i name="ewald">  -1620.61121812 </i>
    <i name="hartreedc">   -226.20309584 </i>
    <i name="XCdc">     33.92902387 </i>
    <i name="pawpsdc">   2070.61275046 </i>
    <i name="pawaedc">  -2178.81712185 </i>
    <i name="eentropy">     -0.00170236 </i>
    <i name="bandstr">    186.55864250 </i>
    <i name="atom">   1626.72322989 </i>
    <i name="e_fr_energy">    -13.48102528 </i>
    <i name="e_wo_entrp">    -13.47932292 </i>
    <i name="e_0_energy">    -13.48017410 </i>
   </energy>
  </scstep>
  <structure>
   <crystal>
    <varray name="basis" >
     <v>       1.17136954      -2.02887155       0.00000000 </v>
     <v>       1.17136954       2.02887155       0.00000000 </v>
     <v>       0.00000000       0.00000000       3.77894892 </v>
    </varray>
    <i name="volume">     17.96178508 </i>
    <varray name="rec_basis" >
     <v>       0.42685078      -0.24644241       0.00000000 </v>
     <v>       0.42685078       0.24644241       0.00000000 </v>
     <v>       0.00000000       0.00000000       0.26462385 </v>
    </varray>
   </crystal>
   <varray name="positions" >
    <v>       0.33333333       0.66666667       0.25000000 </v>
    <v>       0.66666667       0.33333333       0.75000000 </v>
   </varray>
  </structure>
  <varray name="forces" >
   <v>      -0.00000000       0.00000000       0.00000000 </v>
   <v>       0.00000000      -0.00000000       0.00000000 </v>
  </varray>
  <varray name="stress" >
   <v>     609.51866488       0.00000000      -0.00000000 </v>
   <v>       0.00000000     609.51866488       0.00000000 </v>
   <v>      -0.00000000       0.00000000     608.33176690 </v>
  </varray>
  <energy>
   <i name="e_fr_energy">    -13.48102528 </i>
   <i name="e_wo_entrp">    -13.47932292 </i>
   <i name="e_0_energy">    -13.48017410 </i>
  </energy>
  <time name="totalsc">   19.85   19.96</time>
  <eigenvalues>
   <array>
    <dimension dim="1">band</dimension>
    <dimension dim="2">kpoint</dimension>
    <dimension dim="3">spin</dimension>
    <field>eigene</field>
    <field>occ</field>
    <set>
     <set comment="spin 1">
      <set comment="kpoint 1">
       <r>    3.1567    1.0000 </r>
       <r>    7.0947    1.0000 </r>
       <r>   10.3157    1.0000 </r>
       <r>   10.3316    1.0000 </r>
       <r>   10.3316    1.0000 </r>
       <r>   10.7658    1.0000 </r>
       <r>   10.7658    1.0000 </r>
       <r>   11.2265    1.0000 </r>
       <r>   11.2265    1.0000 </r>
       <r>   12.7108    1.0000 </r>
       <r>   12.7108    1.0000 </r>
       <r>   13.1103    0.9986 </r>
       <r>   21.4979    0.0000 </r>
       <r>   36.7379    0.0000 </r>
       <r>   40.4714    0.0000 </r>
       <r>   40.7606    0.0000 </r>
       <r>   41.4062    0.0000 </r>
       <r>   41.4062    0.0000 </r>
       <r>   42.5541    0.0000 </r>
       <r>   42.5541    0.0000 </r>
       <r>   46.5631    0.0000 </r>
       <r>   46.5631    0.0000 </r>
       <r>   48.1941    0.0000 </r>
       <r>   48.7307    0.0000 </r>
      </set>
      <set comment="kpoint 2">
       <r>    3.4382    1.0000 </r>
       <r>    7.2715    1.0000 </r>
       <r>   10.0129    1.0000 </r>
       <r>   10.4822    1.0000 </r>
       <r>   10.5795    1.0000 </r>
       <r>   10.7017    1.0000 </r>
       <r>   10.8988    1.0000 </r>
       <r>   11.0055    1.0000 </r>
       <r>   11.1290    1.0000 </r>
       <r>   11.5863    1.0000 </r>
       <r>   12.7543    1.0000 </r>
       <r>   14.6202    0.0000 </r>
       <r>   21.5249    0.0000 </r>
       <r>   35.4851    0.0000 </r>
       <r>   38.2304    0.0000 </r>
       <r>   38.8956    0.0000 </r>
       <r>   40.8060    0.0000 </r>
       <r>   41.7807    0.0000 </r>
       <r>   43.1550    0.0000 </r>
       <r>   45.2304    0.0000 </r>
       <r>   45.9724    0.0000 </r>
       <r>   46.2220    0.0000 </r>
       <r>   48.3150    0.0000 </r>
       <r>   48.6537    0.0000 </r>
      </set>
      <set comment="kpoint 3">
       <r>    4.2448    1.0000 </r>
       <r>    7.7034    1.0000 </r>
       <r>    9.6374    1.0000 </r>
       <r>   10.0337    1.0000 </r>
       <r>   10.4703    1.0000 </r>
       <r>   10.8896    1.0000 </r>
       <r>   10.9076    1.0000 </r>
       <r>   10.9854    1.0000 </r>
       <r>   11.1532    1.0000 </r>
       <r>   11.2728    1.0000 </r>
       <r>   12.8458    1.0000 </r>
       <r>   16.5328    0.0000 </r>
       <r>   21.6255    0.0000 </r>
       <r>   31.8527    0.0000 </r>
       <r>   36.1612    0.0000 </r>
       <r>   37.0881    0.0000 </r>
       <r>   39.0409    0.0000 </r>
       <r>   40.9483    0.0000 </r>
       <r>   42.7942    0.0000 </r>
       <r>   45.6089    0.0000 </r>
       <r>   45.9251    0.0000 </r>
       <r>   47.1044    0.0000 </r>
       <r>   47.4791    0.0000 </r>
       <r>   49.1287    0.0000 </r>
      </set>
      <set comment="kpoint 4">
       <r>    5.4358    1.0000 </r>
       <r>    8.0264    1.0000 </r>
       <r>    9.0843    1.0000 </r>
       <r>    9.4140    1.0000 </r>
       <r>   10.3514    1.0000 </r>
       <r>   10.6044    1.0000 </r>
       <r>   10.8951    1.0000 </r>
       <r>   11.5277    1.0000 </r>
       <r>   11.5552    1.0000 </r>
       <r>   11.8124    1.0000 </r>
       <r>   12.9320    1.0000 </r>
       <r>   18.6307    0.0000 </r>
       <r>   21.8126    0.0000 </r>
       <r>   27.9680    0.0000 </r>
       <r>   33.7618    0.0000 </r>
       <r>   35.5467    0.0000 </r>
       <r>   35.9644    0.0000 </r>
       <r>   40.0105    0.0000 </r>
       <r>   41.4482    0.0000 </r>
       <r>   45.0948    0.0000 </r>
       <r>   45.6789    0.0000 </r>
       <r>   45.8683    0.0000 </r>
       <r>   47.4983    0.0000 </r>
       <r>   49.4389    0.0000 </r>
      </set>
      <set comment="kpoint 5">
       <r>    6.6567    1.0000 </r>
       <r>    7.9092    1.0000 </r>
       <r>    8.3858    1.0000 </r>
       <r>    9.5738    1.0000 </r>
       <r>   10.3489    1.0000 </r>
       <r>   10.5160    1.0000 </r>
       <r>   10.6640    1.0000 </r>
       <r>   12.1941    1.0000 </r>
       <r>   12.3994    1.0000 </r>
       <r>   12.4546    1.0000 </r>
       <r>   12.9908    1.0000 </r>
       <r>   20.8680    0.0000 </r>
       <r>   21.6189    0.0000 </r>
       <r>   25.0246    0.0000 </r>
       <r>   31.8285    0.0000 </r>
       <r>   32.3343    0.0000 </r>
       <r>   33.8618    0.0000 </r>
       <r>   38.8175    0.0000 </r>
       <r>   39.7838    0.0000 </r>
       <r>   43.6256    0.0000 </r>
       <r>   44.7444    0.0000 </r>
       <r>   46.8974    0.0000 </r>
       <r>   49.3980    0.0000 </r>
       <r>   49.6051    0.0000 </r>
      </set>
      <set comment="kpoint 6">
       <r>    7.3376    1.0000 </r>
       <r>    7.6960    1.0000 </r>
       <r>    7.9621    1.0000 </r>
       <r>   10.0540    1.0000 </r>
       <r>   10.1754    1.0000 </r>
       <r>   10.5019    1.0000 </r>
       <r>   10.7812    1.0000 </r>
       <r>   12.6982    1.0000 </r>
       <r>   12.8872    1.0000 </r>
       <r>   13.0221    1.0000 </r>
       <r>   13.8387    0.0000 </r>
       <r>   19.4946    0.0000 </r>
       <r>   23.1355    0.0000 </r>
       <r>   24.8569    0.0000 </r>
       <r>   29.5090    0.0000 </r>
       <r>   30.5375    0.0000 </r>
       <r>   31.2645    0.0000 </r>
       <r>   37.9474    0.0000 </r>
       <r>   39.1449    0.0000 </r>
       <r>   42.2470    0.0000 </r>
       <r>   44.5483    0.0000 </r>
       <r>   47.5521    0.0000 </r>
       <r>   49.6862    0.0000 </r>
       <r>   50.0752    0.0000 </r>
      </set>
      <set comment="kpoint 7">
       <r>    7.4416    1.0000 </r>
       <r>    7.6554    1.0000 </r>
       <r>    7.8205    1.0000 </r>
       <r>   10.1142    1.0000 </r>
       <r>   10.3582    1.0000 </r>
       <r>   10.4436    1.0000 </r>
       <r>   10.8839    1.0000 </r>
       <r>   12.8814    1.0000 </r>
       <r>   13.0316    1.0000 </r>
       <r>   13.0863    0.9999 </r>
       <r>   15.1512    0.0000 </r>
       <r>   17.6336    0.0000 </r>
       <r>   24.5979    0.0000 </r>
       <r>   25.4961    0.0000 </r>
       <r>   27.8661    0.0000 </r>
       <r>   29.8576    0.0000 </r>
       <r>   30.0781    0.0000 </r>
       <r>   37.6386    0.0000 </r>
       <r>   38.9940    0.0000 </r>
       <r>   41.7626    0.0000 </r>
       <r>   44.4860    0.0000 </r>
       <r>   47.7757    0.0000 </r>
       <r>   49.7904    0.0000 </r>
       <r>   50.1724    0.0000 </r>
      </set>
      <set comment="kpoint 8">
       <r>    3.9836    1.0000 </r>
       <r>    7.5840    1.0000 </r>
       <r>    9.7169    1.0000 </r>
       <r>   10.3556    1.0000 </r>
       <r>   10.5602    1.0000 </r>
       <r>   10.7882    1.0000 </r>
       <r>   10.7898    1.0000 </r>
       <r>   10.8501    1.0000 </r>
       <r>   11.1931    1.0000 </r>
       <r>   11.3130    1.0000 </r>
       <r>   12.8077    1.0000 </r>
       <r>   16.0036    0.0000 </r>
       <r>   21.5915    0.0000 </r>
       <r>   33.4840    0.0000 </r>
       <r>   34.8014    0.0000 </r>
       <r>   39.9708    0.0000 </r>
       <r>   40.4925    0.0000 </r>
       <r>   40.5682    0.0000 </r>
       <r>   41.1381    0.0000 </r>
       <r>   44.9864    0.0000 </r>
       <r>   46.8777    0.0000 </r>
       <r>   47.4133    0.0000 </r>
       <r>   48.8976    0.0000 </r>
       <r>   49.4652    0.0000 </r>
      </set>
      <set comment="kpoint 9">
       <r>    4.9958    1.0000 </r>
       <r>    8.0216    1.0000 </r>
       <r>    9.3474    1.0000 </r>
       <r>    9.4348    1.0000 </r>
       <r>   10.4011    1.0000 </r>
       <r>   10.5464    1.0000 </r>
       <r>   11.1193    1.0000 </r>
       <r>   11.1275    1.0000 </r>
       <r>   11.3527    1.0000 </r>
       <r>   11.7464    1.0000 </r>
       <r>   12.8736    1.0000 </r>
       <r>   17.8816    0.0000 </r>
       <r>   21.7657    0.0000 </r>
       <r>   29.9356    0.0000 </r>
       <r>   32.4226    0.0000 </r>
       <r>   37.2265    0.0000 </r>
       <r>   38.6921    0.0000 </r>
       <r>   39.5016    0.0000 </r>
       <r>   41.7626    0.0000 </r>
       <r>   44.2136    0.0000 </r>
       <r>   44.9154    0.0000 </r>
       <r>   48.0545    0.0000 </r>
       <r>   49.1372    0.0000 </r>
       <r>   49.4729    0.0000 </r>
      </set>
      <set comment="kpoint 10">
       <r>    6.2551    1.0000 </r>
       <r>    8.1334    1.0000 </r>
       <r>    8.6731    1.0000 </r>
       <r>    9.2612    1.0000 </r>
       <r>   10.2953    1.0000 </r>
       <r>   10.4205    1.0000 </r>
       <r>   10.8611    1.0000 </r>
       <r>   11.6628    1.0000 </r>
       <r>   12.0241    1.0000 </r>
       <r>   12.4939    1.0000 </r>
       <r>   12.9290    1.0000 </r>
       <r>   20.0018    0.0000 </r>
       <r>   21.9832    0.0000 </r>
       <r>   26.3185    0.0000 </r>
       <r>   30.6691    0.0000 </r>
       <r>   33.9873    0.0000 </r>
       <r>   36.0992    0.0000 </r>
       <r>   38.1470    0.0000 </r>
       <r>   41.5213    0.0000 </r>
       <r>   42.1711    0.0000 </r>
       <r>   45.5722    0.0000 </r>
       <r>   49.0877    0.0000 </r>
       <r>   49.4021    0.0000 </r>
       <r>   49.4158    0.0000 </r>
      </set>
      <set comment="kpoint 11">
       <r>    7.2606    1.0000 </r>
       <r>    7.9018    1.0000 </r>
       <r>    8.1488    1.0000 </r>
       <r>    9.5889    1.0000 </r>
       <r>   10.1351    1.0000 </r>
       <r>   10.6049    1.0000 </r>
       <r>   10.6730    1.0000 </r>
       <r>   12.3359    1.0000 </r>
       <r>   12.6027    1.0000 </r>
       <r>   12.9633    1.0000 </r>
       <r>   13.5098    0.0000 </r>
       <r>   20.9726    0.0000 </r>
       <r>   22.2611    0.0000 </r>
       <r>   24.6672    0.0000 </r>
       <r>   29.2690    0.0000 </r>
       <r>   30.9924    0.0000 </r>
       <r>   33.0961    0.0000 </r>
       <r>   37.0823    0.0000 </r>
       <r>   40.7397    0.0000 </r>
       <r>   41.0723    0.0000 </r>
       <r>   45.8100    0.0000 </r>
       <r>   49.1766    0.0000 </r>
       <r>   49.6743    0.0000 </r>
       <r>   50.1684    0.0000 </r>
      </set>
      <set comment="kpoint 12">
       <r>    7.5705    1.0000 </r>
       <r>    7.7823    1.0000 </r>
       <r>    7.8835    1.0000 </r>
       <r>   10.0600    1.0000 </r>
       <r>   10.0725    1.0000 </r>
       <r>   10.4351    1.0000 </r>
       <r>   10.8774    1.0000 </r>
       <r>   12.8235    1.0000 </r>
       <r>   12.9191    1.0000 </r>
       <r>   12.9784    1.0000 </r>
       <r>   14.9912    0.0000 </r>
       <r>   18.4688    0.0000 </r>
       <r>   24.3910    0.0000 </r>
       <r>   25.4307    0.0000 </r>
       <r>   28.3422    0.0000 </r>
       <r>   28.5041    0.0000 </r>
       <r>   30.7870    0.0000 </r>
       <r>   36.5144    0.0000 </r>
       <r>   40.0714    0.0000 </r>
       <r>   40.7317    0.0000 </r>
       <r>   45.8003    0.0000 </r>
       <r>   49.2190    0.0000 </r>
       <r>   49.7883    0.0000 </r>
       <r>   50.5189    0.0000 </r>
      </set>
      <set comment="kpoint 13">
       <r>    6.1160    1.0000 </r>
       <r>    8.3798    1.0000 </r>
       <r>    8.8236    1.0000 </r>
       <r>    8.9533    1.0000 </r>
       <r>   10.1993    1.0000 </r>
       <r>   10.4150    1.0000 </r>
       <r>   10.9878    1.0000 </r>
       <r>   11.3495    1.0000 </r>
       <r>   12.0069    1.0000 </r>
       <r>   12.5215    1.0000 </r>
       <r>   12.8758    1.0000 </r>
       <r>   19.7102    0.0000 </r>
       <r>   22.0891    0.0000 </r>
       <r>   27.9340    0.0000 </r>
       <r>   28.7768    0.0000 </r>
       <r>   35.3016    0.0000 </r>
       <r>   36.9126    0.0000 </r>
       <r>   38.3867    0.0000 </r>
       <r>   39.3099    0.0000 </r>
       <r>   44.5357    0.0000 </r>
       <r>   45.8339    0.0000 </r>
       <r>   47.5862    0.0000 </r>
       <r>   49.5920    0.0000 </r>
       <r>   50.5163    0.0000 </r>
      </set>
      <set comment="kpoint 14">
       <r>    7.2938    1.0000 </r>
       <r>    8.3319    1.0000 </r>
       <r>    8.3334    1.0000 </r>
       <r>    8.9397    1.0000 </r>
       <r>    9.9936    1.0000 </r>
       <r>   10.6042    1.0000 </r>
       <r>   10.7325    1.0000 </r>
       <r>   11.7600    1.0000 </r>
       <r>   12.6016    1.0000 </r>
       <r>   12.8729    1.0000 </r>
       <r>   13.5513    0.0000 </r>
       <r>   21.8281    0.0000 </r>
       <r>   22.2917    0.0000 </r>
       <r>   25.0581    0.0000 </r>
       <r>   27.0934    0.0000 </r>
       <r>   32.7617    0.0000 </r>
       <r>   35.1923    0.0000 </r>
       <r>   35.2641    0.0000 </r>
       <r>   38.0409    0.0000 </r>
       <r>   44.7190    0.0000 </r>
       <r>   47.2757    0.0000 </r>
       <r>   49.0941    0.0000 </r>
       <r>   49.6824    0.0000 </r>
       <r>   51.2000    0.0000 </r>
      </set>
      <set comment="kpoint 15">
       <r>    7.9312    1.0000 </r>
       <r>    8.0247    1.0000 </r>
       <r>    8.0871    1.0000 </r>
       <r>    9.3786    1.0000 </r>
       <r>    9.9397    1.0000 </r>
       <r>   10.4549    1.0000 </r>
       <r>   10.8685    1.0000 </r>
       <r>   12.3047    1.0000 </r>
       <r>   12.8692    1.0000 </r>
       <r>   12.9006    1.0000 </r>
       <r>   14.9544    0.0000 </r>
       <r>   20.2881    0.0000 </r>
       <r>   24.0894    0.0000 </r>
       <r>   24.8807    0.0000 </r>
       <r>   26.2273    0.0000 </r>
       <r>   30.0357    0.0000 </r>
       <r>   32.2302    0.0000 </r>
       <r>   34.3483    0.0000 </r>
       <r>   37.2259    0.0000 </r>
       <r>   44.3994    0.0000 </r>
       <r>   48.2330    0.0000 </r>
       <r>   49.7196    0.0000 </r>
       <r>   49.7693    0.0000 </r>
       <r>   52.1993    0.0000 </r>
      </set>
      <set comment="kpoint 16">
       <r>    7.9198    1.0000 </r>
       <r>    7.9317    1.0000 </r>
       <r>    8.1084    1.0000 </r>
       <r>    9.6623    1.0000 </r>
       <r>    9.9644    1.0000 </r>
       <r>   10.3101    1.0000 </r>
       <r>   10.9818    1.0000 </r>
       <r>   12.6761    1.0000 </r>
       <r>   12.8675    1.0000 </r>
       <r>   12.8723    1.0000 </r>
       <r>   16.3154    0.0000 </r>
       <r>   18.3389    0.0000 </r>
       <r>   25.2845    0.0000 </r>
       <r>   25.6913    0.0000 </r>
       <r>   26.2318    0.0000 </r>
       <r>   28.2650    0.0000 </r>
       <r>   30.7265    0.0000 </r>
       <r>   34.0802    0.0000 </r>
       <r>   36.9267    0.0000 </r>
       <r>   44.2650    0.0000 </r>
       <r>   48.4736    0.0000 </r>
       <r>   49.7575    0.0000 </r>
       <r>   49.8307    0.0000 </r>
       <r>   52.9899    0.0000 </r>
      </set>
      <set comment="kpoint 17">
       <r>    8.1056    1.0000 </r>
       <r>    8.1542    1.0000 </r>
       <r>    8.6115    1.0000 </r>
       <r>    8.6558    1.0000 </r>
       <r>    9.8532    1.0000 </r>
       <r>   10.4764    1.0000 </r>
       <r>   10.8751    1.0000 </r>
       <r>   12.0001    1.0000 </r>
       <r>   12.8132    1.0000 </r>
       <r>   12.9080    1.0000 </r>
       <r>   14.9834    0.0000 </r>
       <r>   22.2161    0.0000 </r>
       <r>   23.0460    0.0000 </r>
       <r>   23.9715    0.0000 </r>
       <r>   25.8001    0.0000 </r>
       <r>   31.7855    0.0000 </r>
       <r>   32.3625    0.0000 </r>
       <r>   33.9546    0.0000 </r>
       <r>   34.9838    0.0000 </r>
       <r>   47.6608    0.0000 </r>
       <r>   49.0531    0.0000 </r>
       <r>   49.4366    0.0000 </r>
       <r>   49.7329    0.0000 </r>
       <r>   51.5047    0.0000 </r>
      </set>
      <set comment="kpoint 18">
       <r>    7.9934    1.0000 </r>
       <r>    8.3729    1.0000 </r>
       <r>    8.4563    1.0000 </r>
       <r>    9.0958    1.0000 </r>
       <r>    9.8815    1.0000 </r>
       <r>   10.2110    1.0000 </r>
       <r>   11.0957    1.0000 </r>
       <r>   12.3680    1.0000 </r>
       <r>   12.7780    1.0000 </r>
       <r>   12.8341    1.0000 </r>
       <r>   16.8470    0.0000 </r>
       <r>   19.8260    0.0000 </r>
       <r>   22.3398    0.0000 </r>
       <r>   26.2430    0.0000 </r>
       <r>   26.7608    0.0000 </r>
       <r>   29.4376    0.0000 </r>
       <r>   31.6082    0.0000 </r>
       <r>   31.6967    0.0000 </r>
       <r>   34.1038    0.0000 </r>
       <r>   48.1002    0.0000 </r>
       <r>   49.7174    0.0000 </r>
       <r>   49.8487    0.0000 </r>
       <r>   51.1945    0.0000 </r>
       <r>   52.8158    0.0000 </r>
      </set>
      <set comment="kpoint 19">
       <r>    7.9946    1.0000 </r>
       <r>    8.6132    1.0000 </r>
       <r>    8.6132    1.0000 </r>
       <r>    8.9026    1.0000 </r>
       <r>    9.9850    1.0000 </r>
       <r>    9.9850    1.0000 </r>
       <r>   11.2251    1.0000 </r>
       <r>   12.5635    1.0000 </r>
       <r>   12.5635    1.0000 </r>
       <r>   12.7418    1.0000 </r>
       <r>   18.6519    0.0000 </r>
       <r>   19.8774    0.0000 </r>
       <r>   19.8774    0.0000 </r>
       <r>   27.5968    0.0000 </r>
       <r>   28.4949    0.0000 </r>
       <r>   28.4949    0.0000 </r>
       <r>   29.9041    0.0000 </r>
       <r>   32.0635    0.0000 </r>
       <r>   32.0635    0.0000 </r>
       <r>   49.6613    0.0000 </r>
       <r>   49.6613    0.0000 </r>
       <r>   50.3230    0.0000 </r>
       <r>   54.0996    0.0000 </r>
       <r>   54.0996    0.0000 </r>
      </set>
      <set comment="kpoint 20">
       <r>    3.3402    1.0000 </r>
       <r>    7.0815    1.0000 </r>
       <r>   10.2593    1.0000 </r>
       <r>   10.2757    1.0000 </r>
       <r>   10.2757    1.0000 </r>
       <r>   10.7063    1.0000 </r>
       <r>   10.7063    1.0000 </r>
       <r>   11.3593    1.0000 </r>
       <r>   11.3593    1.0000 </r>
       <r>   12.4819    1.0000 </r>
       <r>   12.7027    1.0000 </r>
       <r>   12.7027    1.0000 </r>
       <r>   22.4408    0.0000 </r>
       <r>   36.6174    0.0000 </r>
       <r>   39.8677    0.0000 </r>
       <r>   40.0692    0.0000 </r>
       <r>   41.5386    0.0000 </r>
       <r>   41.5386    0.0000 </r>
       <r>   42.5870    0.0000 </r>
       <r>   42.5870    0.0000 </r>
       <r>   46.3094    0.0000 </r>
       <r>   46.3094    0.0000 </r>
       <r>   48.6011    0.0000 </r>
       <r>   48.7621    0.0000 </r>
      </set>
      <set comment="kpoint 21">
       <r>    3.6182    1.0000 </r>
       <r>    7.2672    1.0000 </r>
       <r>   10.0103    1.0000 </r>
       <r>   10.4099    1.0000 </r>
       <r>   10.4282    1.0000 </r>
       <r>   10.5494    1.0000 </r>
       <r>   10.8325    1.0000 </r>
       <r>   11.1675    1.0000 </r>
       <r>   11.2882    1.0000 </r>
       <r>   11.5020    1.0000 </r>
       <r>   12.7397    1.0000 </r>
       <r>   14.1140    0.0000 </r>
       <r>   22.5181    0.0000 </r>
       <r>   35.5044    0.0000 </r>
       <r>   38.1350    0.0000 </r>
       <r>   39.0542    0.0000 </r>
       <r>   39.8699    0.0000 </r>
       <r>   41.0577    0.0000 </r>
       <r>   43.4909    0.0000 </r>
       <r>   45.0172    0.0000 </r>
       <r>   45.9286    0.0000 </r>
       <r>   46.3800    0.0000 </r>
       <r>   47.2022    0.0000 </r>
       <r>   49.3384    0.0000 </r>
      </set>
      <set comment="kpoint 22">
       <r>    4.4112    1.0000 </r>
       <r>    7.7263    1.0000 </r>
       <r>    9.6605    1.0000 </r>
       <r>    9.8299    1.0000 </r>
       <r>   10.3894    1.0000 </r>
       <r>   10.6977    1.0000 </r>
       <r>   10.8603    1.0000 </r>
       <r>   11.1152    1.0000 </r>
       <r>   11.2838    1.0000 </r>
       <r>   11.3826    1.0000 </r>
       <r>   12.8174    1.0000 </r>
       <r>   15.7667    0.0000 </r>
       <r>   22.7836    0.0000 </r>
       <r>   31.9811    0.0000 </r>
       <r>   36.3635    0.0000 </r>
       <r>   36.7161    0.0000 </r>
       <r>   38.8134    0.0000 </r>
       <r>   39.9715    0.0000 </r>
       <r>   43.2789    0.0000 </r>
       <r>   44.4844    0.0000 </r>
       <r>   45.4710    0.0000 </r>
       <r>   46.8753    0.0000 </r>
       <r>   47.8429    0.0000 </r>
       <r>   49.5111    0.0000 </r>
      </set>
      <set comment="kpoint 23">
       <r>    5.5657    1.0000 </r>
       <r>    8.0786    1.0000 </r>
       <r>    8.9820    1.0000 </r>
       <r>    9.4574    1.0000 </r>
       <r>   10.2177    1.0000 </r>
       <r>   10.6314    1.0000 </r>
       <r>   10.9133    1.0000 </r>
       <r>   11.5742    1.0000 </r>
       <r>   11.6461    1.0000 </r>
       <r>   11.7664    1.0000 </r>
       <r>   12.8900    1.0000 </r>
       <r>   17.4508    0.0000 </r>
       <r>   23.2914    0.0000 </r>
       <r>   28.1241    0.0000 </r>
       <r>   34.0005    0.0000 </r>
       <r>   34.2818    0.0000 </r>
       <r>   36.8529    0.0000 </r>
       <r>   39.5361    0.0000 </r>
       <r>   41.8577    0.0000 </r>
       <r>   43.1697    0.0000 </r>
       <r>   45.0726    0.0000 </r>
       <r>   46.9106    0.0000 </r>
       <r>   47.5003    0.0000 </r>
       <r>   49.6604    0.0000 </r>
      </set>
      <set comment="kpoint 24">
       <r>    6.6899    1.0000 </r>
       <r>    7.9466    1.0000 </r>
       <r>    8.4420    1.0000 </r>
       <r>    9.4401    1.0000 </r>
       <r>   10.4158    1.0000 </r>
       <r>   10.4187    1.0000 </r>
       <r>   10.9689    1.0000 </r>
       <r>   12.2168    1.0000 </r>
       <r>   12.3239    1.0000 </r>
       <r>   12.4042    1.0000 </r>
       <r>   12.9450    1.0000 </r>
       <r>   18.9579    0.0000 </r>
       <r>   23.4504    0.0000 </r>
       <r>   25.4406    0.0000 </r>
       <r>   31.2143    0.0000 </r>
       <r>   32.0978    0.0000 </r>
       <r>   34.9576    0.0000 </r>
       <r>   38.6210    0.0000 </r>
       <r>   40.0002    0.0000 </r>
       <r>   41.8054    0.0000 </r>
       <r>   45.9731    0.0000 </r>
       <r>   46.5958    0.0000 </r>
       <r>   48.0873    0.0000 </r>
       <r>   49.8724    0.0000 </r>
      </set>
      <set comment="kpoint 25">
       <r>    7.2164    1.0000 </r>
       <r>    7.6408    1.0000 </r>
       <r>    8.3010    1.0000 </r>
       <r>    9.4729    1.0000 </r>
       <r>   10.2610    1.0000 </r>
       <r>   10.7650    1.0000 </r>
       <r>   11.2248    1.0000 </r>
       <r>   12.6911    1.0000 </r>
       <r>   12.7811    1.0000 </r>
       <r>   13.0082    1.0000 </r>
       <r>   13.7146    0.0000 </r>
       <r>   18.9243    0.0000 </r>
       <r>   22.7281    0.0000 </r>
       <r>   25.6353    0.0000 </r>
       <r>   28.9592    0.0000 </r>
       <r>   30.8288    0.0000 </r>
       <r>   32.4615    0.0000 </r>
       <r>   37.8622    0.0000 </r>
       <r>   39.2317    0.0000 </r>
       <r>   40.7646    0.0000 </r>
       <r>   46.0989    0.0000 </r>
       <r>   47.2878    0.0000 </r>
       <r>   48.6727    0.0000 </r>
       <r>   49.9711    0.0000 </r>
      </set>
      <set comment="kpoint 26">
       <r>    7.3085    1.0000 </r>
       <r>    7.4880    1.0000 </r>
       <r>    8.2959    1.0000 </r>
       <r>    9.5066    1.0000 </r>
       <r>   10.2042    1.0000 </r>
       <r>   10.8773    1.0000 </r>
       <r>   11.4295    1.0000 </r>
       <r>   12.8167    1.0000 </r>
       <r>   12.9652    1.0000 </r>
       <r>   13.0802    0.9999 </r>
       <r>   14.9716    0.0000 </r>
       <r>   17.4871    0.0000 </r>
       <r>   24.0863    0.0000 </r>
       <r>   24.5703    0.0000 </r>
       <r>   29.1255    0.0000 </r>
       <r>   30.3775    0.0000 </r>
       <r>   30.7056    0.0000 </r>
       <r>   37.5827    0.0000 </r>
       <r>   39.0505    0.0000 </r>
       <r>   40.3775    0.0000 </r>
       <r>   45.9471    0.0000 </r>
       <r>   48.0322    0.0000 </r>
       <r>   48.8363    0.0000 </r>
       <r>   49.9252    0.0000 </r>
      </set>
      <set comment="kpoint 27">
       <r>    4.1552    1.0000 </r>
       <r>    7.5981    1.0000 </r>
       <r>    9.7365    1.0000 </r>
       <r>   10.0741    1.0000 </r>
       <r>   10.4822    1.0000 </r>
       <r>   10.6250    1.0000 </r>
       <r>   10.7828    1.0000 </r>
       <r>   11.0228    1.0000 </r>
       <r>   11.2877    1.0000 </r>
       <r>   11.4029    1.0000 </r>
       <r>   12.7860    1.0000 </r>
       <r>   15.3200    0.0000 </r>
       <r>   22.6922    0.0000 </r>
       <r>   33.5770    0.0000 </r>
       <r>   34.9426    0.0000 </r>
       <r>   39.1294    0.0000 </r>
       <r>   39.2295    0.0000 </r>
       <r>   40.7542    0.0000 </r>
       <r>   42.2181    0.0000 </r>
       <r>   43.6113    0.0000 </r>
       <r>   46.8703    0.0000 </r>
       <r>   47.8034    0.0000 </r>
       <r>   48.9101    0.0000 </r>
       <r>   49.0265    0.0000 </r>
      </set>
      <set comment="kpoint 28">
       <r>    5.1442    1.0000 </r>
       <r>    8.0705    1.0000 </r>
       <r>    9.2718    1.0000 </r>
       <r>    9.3943    1.0000 </r>
       <r>   10.3039    1.0000 </r>
       <r>   10.5715    1.0000 </r>
       <r>   10.9304    1.0000 </r>
       <r>   11.2377    1.0000 </r>
       <r>   11.5389    1.0000 </r>
       <r>   11.7231    1.0000 </r>
       <r>   12.8458    1.0000 </r>
       <r>   16.8763    0.0000 </r>
       <r>   23.1073    0.0000 </r>
       <r>   30.0819    0.0000 </r>
       <r>   32.5825    0.0000 </r>
       <r>   36.2269    0.0000 </r>
       <r>   38.4571    0.0000 </r>
       <r>   39.6639    0.0000 </r>
       <r>   42.5242    0.0000 </r>
       <r>   43.1672    0.0000 </r>
       <r>   44.7112    0.0000 </r>
       <r>   47.0430    0.0000 </r>
       <r>   49.1626    0.0000 </r>
       <r>   49.9328    0.0000 </r>
      </set>
      <set comment="kpoint 29">
       <r>    6.3439    1.0000 </r>
       <r>    8.1974    1.0000 </r>
       <r>    8.6130    1.0000 </r>
       <r>    9.2975    1.0000 </r>
       <r>   10.1755    1.0000 </r>
       <r>   10.5469    1.0000 </r>
       <r>   10.8456    1.0000 </r>
       <r>   11.6757    1.0000 </r>
       <r>   12.0971    1.0000 </r>
       <r>   12.3883    1.0000 </r>
       <r>   12.9324    1.0000 </r>
       <r>   18.4775    0.0000 </r>
       <r>   23.7281    0.0000 </r>
       <r>   26.5075    0.0000 </r>
       <r>   30.8414    0.0000 </r>
       <r>   32.9982    0.0000 </r>
       <r>   36.9566    0.0000 </r>
       <r>   37.6273    0.0000 </r>
       <r>   41.8872    0.0000 </r>
       <r>   42.6060    0.0000 </r>
       <r>   44.1120    0.0000 </r>
       <r>   47.3860    0.0000 </r>
       <r>   49.5761    0.0000 </r>
       <r>   50.0503    0.0000 </r>
      </set>
      <set comment="kpoint 30">
       <r>    7.2026    1.0000 </r>
       <r>    7.9142    1.0000 </r>
       <r>    8.3315    1.0000 </r>
       <r>    9.3538    1.0000 </r>
       <r>   10.2171    1.0000 </r>
       <r>   10.6549    1.0000 </r>
       <r>   10.8985    1.0000 </r>
       <r>   12.2977    1.0000 </r>
       <r>   12.6499    1.0000 </r>
       <r>   12.8060    1.0000 </r>
       <r>   13.5175    0.0000 </r>
       <r>   19.5791    0.0000 </r>
       <r>   22.9372    0.0000 </r>
       <r>   25.5973    0.0000 </r>
       <r>   29.3156    0.0000 </r>
       <r>   30.2697    0.0000 </r>
       <r>   34.2773    0.0000 </r>
       <r>   36.4752    0.0000 </r>
       <r>   41.1103    0.0000 </r>
       <r>   41.2537    0.0000 </r>
       <r>   44.9868    0.0000 </r>
       <r>   48.0329    0.0000 </r>
       <r>   49.5937    0.0000 </r>
       <r>   50.1990    0.0000 </r>
      </set>
      <set comment="kpoint 31">
       <r>    7.4041    1.0000 </r>
       <r>    7.6629    1.0000 </r>
       <r>    8.3510    1.0000 </r>
       <r>    9.4388    1.0000 </r>
       <r>   10.1202    1.0000 </r>
       <r>   10.9019    1.0000 </r>
       <r>   11.1039    1.0000 </r>
       <r>   12.7525    1.0000 </r>
       <r>   12.8923    1.0000 </r>
       <r>   12.9431    1.0000 </r>
       <r>   14.9199    0.0000 </r>
       <r>   18.2631    0.0000 </r>
       <r>   23.5273    0.0000 </r>
       <r>   25.4415    0.0000 </r>
       <r>   28.4873    0.0000 </r>
       <r>   29.2322    0.0000 </r>
       <r>   31.7677    0.0000 </r>
       <r>   35.9217    0.0000 </r>
       <r>   40.4678    0.0000 </r>
       <r>   40.7975    0.0000 </r>
       <r>   45.4192    0.0000 </r>
       <r>   48.7604    0.0000 </r>
       <r>   49.5468    0.0000 </r>
       <r>   50.4462    0.0000 </r>
      </set>
      <set comment="kpoint 32">
       <r>    6.2245    1.0000 </r>
       <r>    8.4464    1.0000 </r>
       <r>    8.7438    1.0000 </r>
       <r>    8.9943    1.0000 </r>
       <r>   10.1865    1.0000 </r>
       <r>   10.4221    1.0000 </r>
       <r>   10.8822    1.0000 </r>
       <r>   11.4055    1.0000 </r>
       <r>   12.1079    1.0000 </r>
       <r>   12.3876    1.0000 </r>
       <r>   12.9235    1.0000 </r>
       <r>   18.3065    0.0000 </r>
       <r>   23.7615    0.0000 </r>
       <r>   28.0910    0.0000 </r>
       <r>   28.9673    0.0000 </r>
       <r>   34.4239    0.0000 </r>
       <r>   35.8502    0.0000 </r>
       <r>   39.4940    0.0000 </r>
       <r>   40.3699    0.0000 </r>
       <r>   43.8002    0.0000 </r>
       <r>   44.8701    0.0000 </r>
       <r>   47.5509    0.0000 </r>
       <r>   49.5309    0.0000 </r>
       <r>   50.2270    0.0000 </r>
      </set>
      <set comment="kpoint 33">
       <r>    7.3132    1.0000 </r>
       <r>    8.2912    1.0000 </r>
       <r>    8.4196    1.0000 </r>
       <r>    8.9974    1.0000 </r>
       <r>   10.0518    1.0000 </r>
       <r>   10.6148    1.0000 </r>
       <r>   10.6628    1.0000 </r>
       <r>   11.7787    1.0000 </r>
       <r>   12.6754    1.0000 </r>
       <r>   12.6861    1.0000 </r>
       <r>   13.6313    0.0000 </r>
       <r>   19.8019    0.0000 </r>
       <r>   24.1689    0.0000 </r>
       <r>   25.5447    0.0000 </r>
       <r>   27.2987    0.0000 </r>
       <r>   31.7797    0.0000 </r>
       <r>   34.1889    0.0000 </r>
       <r>   36.5129    0.0000 </r>
       <r>   39.2022    0.0000 </r>
       <r>   44.5746    0.0000 </r>
       <r>   45.6889    0.0000 </r>
       <r>   48.9142    0.0000 </r>
       <r>   49.5565    0.0000 </r>
       <r>   50.6407    0.0000 </r>
      </set>
      <set comment="kpoint 34">
       <r>    7.7014    1.0000 </r>
       <r>    8.1086    1.0000 </r>
       <r>    8.3765    1.0000 </r>
       <r>    9.1863    1.0000 </r>
       <r>   10.0132    1.0000 </r>
       <r>   10.5536    1.0000 </r>
       <r>   10.9135    1.0000 </r>
       <r>   12.2944    1.0000 </r>
       <r>   12.7036    1.0000 </r>
       <r>   12.9534    1.0000 </r>
       <r>   15.0074    0.0000 </r>
       <r>   19.9016    0.0000 </r>
       <r>   23.1546    0.0000 </r>
       <r>   25.9703    0.0000 </r>
       <r>   26.4932    0.0000 </r>
       <r>   29.5387    0.0000 </r>
       <r>   33.3750    0.0000 </r>
       <r>   33.4978    0.0000 </r>
       <r>   38.4241    0.0000 </r>
       <r>   44.4211    0.0000 </r>
       <r>   46.8166    0.0000 </r>
       <r>   49.2120    0.0000 </r>
       <r>   49.7148    0.0000 </r>
       <r>   50.7935    0.0000 </r>
      </set>
      <set comment="kpoint 35">
       <r>    7.6796    1.0000 </r>
       <r>    7.9915    1.0000 </r>
       <r>    8.4903    1.0000 </r>
       <r>    9.2986    1.0000 </r>
       <r>    9.9319    1.0000 </r>
       <r>   10.6297    1.0000 </r>
       <r>   11.0318    1.0000 </r>
       <r>   12.6724    1.0000 </r>
       <r>   12.6818    1.0000 </r>
       <r>   12.9222    1.0000 </r>
       <r>   16.3663    0.0000 </r>
       <r>   18.2819    0.0000 </r>
       <r>   24.6315    0.0000 </r>
       <r>   25.1357    0.0000 </r>
       <r>   25.9730    0.0000 </r>
       <r>   29.6652    0.0000 </r>
       <r>   31.6642    0.0000 </r>
       <r>   33.1113    0.0000 </r>
       <r>   38.1387    0.0000 </r>
       <r>   44.3037    0.0000 </r>
       <r>   47.4088    0.0000 </r>
       <r>   49.1248    0.0000 </r>
       <r>   49.6977    0.0000 </r>
       <r>   50.8220    0.0000 </r>
      </set>
      <set comment="kpoint 36">
       <r>    8.0725    1.0000 </r>
       <r>    8.1468    1.0000 </r>
       <r>    8.6419    1.0000 </r>
       <r>    8.7487    1.0000 </r>
       <r>    9.9891    1.0000 </r>
       <r>   10.3619    1.0000 </r>
       <r>   10.8679    1.0000 </r>
       <r>   12.0241    1.0000 </r>
       <r>   12.6395    1.0000 </r>
       <r>   12.9633    1.0000 </r>
       <r>   15.0734    0.0000 </r>
       <r>   21.0739    0.0000 </r>
       <r>   23.2292    0.0000 </r>
       <r>   24.2911    0.0000 </r>
       <r>   26.8248    0.0000 </r>
       <r>   30.8845    0.0000 </r>
       <r>   31.2554    0.0000 </r>
       <r>   35.3333    0.0000 </r>
       <r>   36.2881    0.0000 </r>
       <r>   46.7410    0.0000 </r>
       <r>   48.3606    0.0000 </r>
       <r>   49.0756    0.0000 </r>
       <r>   49.8999    0.0000 </r>
       <r>   51.3275    0.0000 </r>
      </set>
      <set comment="kpoint 37">
       <r>    7.9716    1.0000 </r>
       <r>    8.4409    1.0000 </r>
       <r>    8.5584    1.0000 </r>
       <r>    8.9982    1.0000 </r>
       <r>    9.9228    1.0000 </r>
       <r>   10.2009    1.0000 </r>
       <r>   11.0975    1.0000 </r>
       <r>   12.3846    1.0000 </r>
       <r>   12.5956    1.0000 </r>
       <r>   12.8725    1.0000 </r>
       <r>   16.9778    0.0000 </r>
       <r>   19.8235    0.0000 </r>
       <r>   22.3608    0.0000 </r>
       <r>   25.0738    0.0000 </r>
       <r>   26.9886    0.0000 </r>
       <r>   29.6003    0.0000 </r>
       <r>   30.8425    0.0000 </r>
       <r>   32.9605    0.0000 </r>
       <r>   35.4654    0.0000 </r>
       <r>   47.8099    0.0000 </r>
       <r>   49.1334    0.0000 </r>
       <r>   49.6898    0.0000 </r>
       <r>   50.0862    0.0000 </r>
       <r>   51.5879    0.0000 </r>
      </set>
      <set comment="kpoint 38">
       <r>    8.0684    1.0000 </r>
       <r>    8.6248    1.0000 </r>
       <r>    8.6248    1.0000 </r>
       <r>    8.9171    1.0000 </r>
       <r>    9.9653    1.0000 </r>
       <r>    9.9653    1.0000 </r>
       <r>   11.2024    1.0000 </r>
       <r>   12.5497    1.0000 </r>
       <r>   12.5955    1.0000 </r>
       <r>   12.5955    1.0000 </r>
       <r>   18.9322    0.0000 </r>
       <r>   19.9088    0.0000 </r>
       <r>   19.9088    0.0000 </r>
       <r>   26.4616    0.0000 </r>
       <r>   27.6249    0.0000 </r>
       <r>   27.6249    0.0000 </r>
       <r>   31.2927    0.0000 </r>
       <r>   33.2748    0.0000 </r>
       <r>   33.2748    0.0000 </r>
       <r>   49.2402    0.0000 </r>
       <r>   49.6859    0.0000 </r>
       <r>   49.6859    0.0000 </r>
       <r>   51.6892    0.0000 </r>
       <r>   51.6892    0.0000 </r>
      </set>
      <set comment="kpoint 39">
       <r>    3.8747    1.0000 </r>
       <r>    6.9682    1.0000 </r>
       <r>   10.1112    1.0000 </r>
       <r>   10.1937    1.0000 </r>
       <r>   10.1937    1.0000 </r>
       <r>   10.5577    1.0000 </r>
       <r>   10.5577    1.0000 </r>
       <r>   11.2405    1.0000 </r>
       <r>   11.6585    1.0000 </r>
       <r>   11.6585    1.0000 </r>
       <r>   12.6551    1.0000 </r>
       <r>   12.6551    1.0000 </r>
       <r>   24.6846    0.0000 </r>
       <r>   35.9922    0.0000 </r>
       <r>   38.0345    0.0000 </r>
       <r>   39.1888    0.0000 </r>
       <r>   41.9119    0.0000 </r>
       <r>   41.9119    0.0000 </r>
       <r>   42.6767    0.0000 </r>
       <r>   42.6767    0.0000 </r>
       <r>   45.7927    0.0000 </r>
       <r>   45.7927    0.0000 </r>
       <r>   48.3624    0.0000 </r>
       <r>   48.3624    0.0000 </r>
      </set>
      <set comment="kpoint 40">
       <r>    4.1423    1.0000 </r>
       <r>    7.1770    1.0000 </r>
       <r>   10.0250    1.0000 </r>
       <r>   10.1440    1.0000 </r>
       <r>   10.1977    1.0000 </r>
       <r>   10.3147    1.0000 </r>
       <r>   10.6816    1.0000 </r>
       <r>   10.9638    1.0000 </r>
       <r>   11.6118    1.0000 </r>
       <r>   11.6655    1.0000 </r>
       <r>   12.6765    1.0000 </r>
       <r>   13.3310    0.0006 </r>
       <r>   24.8189    0.0000 </r>
       <r>   35.4653    0.0000 </r>
       <r>   37.2955    0.0000 </r>
       <r>   38.2234    0.0000 </r>
       <r>   39.5266    0.0000 </r>
       <r>   40.3063    0.0000 </r>
       <r>   42.9478    0.0000 </r>
       <r>   43.9532    0.0000 </r>
       <r>   46.0156    0.0000 </r>
       <r>   46.9292    0.0000 </r>
       <r>   47.0552    0.0000 </r>
       <r>   49.5703    0.0000 </r>
      </set>
      <set comment="kpoint 41">
       <r>    4.8948    1.0000 </r>
       <r>    7.7084    1.0000 </r>
       <r>    9.4144    1.0000 </r>
       <r>    9.7459    1.0000 </r>
       <r>   10.0977    1.0000 </r>
       <r>   10.5937    1.0000 </r>
       <r>   10.7418    1.0000 </r>
       <r>   11.0244    1.0000 </r>
       <r>   11.5712    1.0000 </r>
       <r>   11.7413    1.0000 </r>
       <r>   12.7200    1.0000 </r>
       <r>   14.4958    0.0000 </r>
       <r>   25.2373    0.0000 </r>
       <r>   32.3629    0.0000 </r>
       <r>   35.6998    0.0000 </r>
       <r>   36.9621    0.0000 </r>
       <r>   37.7745    0.0000 </r>
       <r>   38.7675    0.0000 </r>
       <r>   41.9404    0.0000 </r>
       <r>   42.6351    0.0000 </r>
       <r>   46.3535    0.0000 </r>
       <r>   48.3277    0.0000 </r>
       <r>   48.4207    0.0000 </r>
       <r>   49.5901    0.0000 </r>
      </set>
      <set comment="kpoint 42">
       <r>    5.9381    1.0000 </r>
       <r>    8.1380    1.0000 </r>
       <r>    8.7607    1.0000 </r>
       <r>    9.5568    1.0000 </r>
       <r>    9.9997    1.0000 </r>
       <r>   10.7179    1.0000 </r>
       <r>   10.8291    1.0000 </r>
       <r>   11.5316    1.0000 </r>
       <r>   11.8135    1.0000 </r>
       <r>   11.9359    1.0000 </r>
       <r>   12.7647    1.0000 </r>
       <r>   15.7271    0.0000 </r>
       <r>   25.8973    0.0000 </r>
       <r>   28.5980    0.0000 </r>
       <r>   32.7870    0.0000 </r>
       <r>   34.7005    0.0000 </r>
       <r>   37.2338    0.0000 </r>
       <r>   38.4032    0.0000 </r>
       <r>   41.0383    0.0000 </r>
       <r>   41.1626    0.0000 </r>
       <r>   44.7232    0.0000 </r>
       <r>   48.4166    0.0000 </r>
       <r>   49.2810    0.0000 </r>
       <r>   49.6730    0.0000 </r>
      </set>
      <set comment="kpoint 43">
       <r>    6.8055    1.0000 </r>
       <r>    7.9555    1.0000 </r>
       <r>    8.5225    1.0000 </r>
       <r>    9.3273    1.0000 </r>
       <r>   10.3961    1.0000 </r>
       <r>   10.6213    1.0000 </r>
       <r>   11.4017    1.0000 </r>
       <r>   12.0816    1.0000 </r>
       <r>   12.3000    1.0000 </r>
       <r>   12.3474    1.0000 </r>
       <r>   12.8326    1.0000 </r>
       <r>   16.9185    0.0000 </r>
       <r>   24.7515    0.0000 </r>
       <r>   27.0140    0.0000 </r>
       <r>   29.9435    0.0000 </r>
       <r>   32.8788    0.0000 </r>
       <r>   36.0857    0.0000 </r>
       <r>   38.1298    0.0000 </r>
       <r>   39.6149    0.0000 </r>
       <r>   40.2623    0.0000 </r>
       <r>   43.7571    0.0000 </r>
       <r>   48.8779    0.0000 </r>
       <r>   49.0604    0.0000 </r>
       <r>   49.8623    0.0000 </r>
      </set>
      <set comment="kpoint 44">
       <r>    7.0737    1.0000 </r>
       <r>    7.6754    1.0000 </r>
       <r>    8.6294    1.0000 </r>
       <r>    9.0430    1.0000 </r>
       <r>   10.5101    1.0000 </r>
       <r>   10.8372    1.0000 </r>
       <r>   12.2205    1.0000 </r>
       <r>   12.4003    1.0000 </r>
       <r>   12.7586    1.0000 </r>
       <r>   12.9735    1.0000 </r>
       <r>   13.3484    0.0001 </r>
       <r>   17.5614    0.0000 </r>
       <r>   22.6487    0.0000 </r>
       <r>   25.5478    0.0000 </r>
       <r>   29.9185    0.0000 </r>
       <r>   31.6665    0.0000 </r>
       <r>   34.2075    0.0000 </r>
       <r>   37.6510    0.0000 </r>
       <r>   38.6160    0.0000 </r>
       <r>   39.4469    0.0000 </r>
       <r>   44.7091    0.0000 </r>
       <r>   48.4563    0.0000 </r>
       <r>   48.9904    0.0000 </r>
       <r>   49.4541    0.0000 </r>
      </set>
      <set comment="kpoint 45">
       <r>    7.0828    1.0000 </r>
       <r>    7.5689    1.0000 </r>
       <r>    8.7897    1.0000 </r>
       <r>    8.8484    1.0000 </r>
       <r>   10.4666    1.0000 </r>
       <r>   10.9802    1.0000 </r>
       <r>   12.4720    1.0000 </r>
       <r>   12.4930    1.0000 </r>
       <r>   12.9533    1.0000 </r>
       <r>   13.0627    1.0000 </r>
       <r>   14.4905    0.0000 </r>
       <r>   17.0254    0.0000 </r>
       <r>   23.2145    0.0000 </r>
       <r>   23.3903    0.0000 </r>
       <r>   31.2363    0.0000 </r>
       <r>   31.3091    0.0000 </r>
       <r>   32.4839    0.0000 </r>
       <r>   37.4420    0.0000 </r>
       <r>   38.2547    0.0000 </r>
       <r>   39.2058    0.0000 </r>
       <r>   45.7541    0.0000 </r>
       <r>   48.0248    0.0000 </r>
       <r>   48.3055    0.0000 </r>
       <r>   49.3204    0.0000 </r>
      </set>
      <set comment="kpoint 46">
       <r>    4.6545    1.0000 </r>
       <r>    7.5568    1.0000 </r>
       <r>    9.6228    1.0000 </r>
       <r>    9.8054    1.0000 </r>
       <r>   10.1297    1.0000 </r>
       <r>   10.5393    1.0000 </r>
       <r>   10.7405    1.0000 </r>
       <r>   10.9130    1.0000 </r>
       <r>   11.6414    1.0000 </r>
       <r>   11.6604    1.0000 </r>
       <r>   12.7053    1.0000 </r>
       <r>   14.1756    0.0000 </r>
       <r>   25.0984    0.0000 </r>
       <r>   33.8448    0.0000 </r>
       <r>   35.3154    0.0000 </r>
       <r>   37.2151    0.0000 </r>
       <r>   37.8871    0.0000 </r>
       <r>   40.5297    0.0000 </r>
       <r>   41.7159    0.0000 </r>
       <r>   42.8976    0.0000 </r>
       <r>   46.7532    0.0000 </r>
       <r>   47.6296    0.0000 </r>
       <r>   48.9085    0.0000 </r>
       <r>   49.4650    0.0000 </r>
      </set>
      <set comment="kpoint 47">
       <r>    5.5734    1.0000 </r>
       <r>    8.1270    1.0000 </r>
       <r>    8.9458    1.0000 </r>
       <r>    9.4950    1.0000 </r>
       <r>   10.0538    1.0000 </r>
       <r>   10.5830    1.0000 </r>
       <r>   10.7567    1.0000 </r>
       <r>   11.3054    1.0000 </r>
       <r>   11.7830    1.0000 </r>
       <r>   11.8583    1.0000 </r>
       <r>   12.7546    1.0000 </r>
       <r>   15.3124    0.0000 </r>
       <r>   25.6794    0.0000 </r>
       <r>   30.5132    0.0000 </r>
       <r>   32.9893    0.0000 </r>
       <r>   34.8764    0.0000 </r>
       <r>   36.9214    0.0000 </r>
       <r>   39.8793    0.0000 </r>
       <r>   40.5916    0.0000 </r>
       <r>   43.8276    0.0000 </r>
       <r>   45.0311    0.0000 </r>
       <r>   46.9128    0.0000 </r>
       <r>   49.3853    0.0000 </r>
       <r>   49.6854    0.0000 </r>
      </set>
      <set comment="kpoint 48">
       <r>    6.5965    1.0000 </r>
       <r>    8.2455    1.0000 </r>
       <r>    8.5303    1.0000 </r>
       <r>    9.4153    1.0000 </r>
       <r>   10.0237    1.0000 </r>
       <r>   10.7029    1.0000 </r>
       <r>   10.8036    1.0000 </r>
       <r>   11.7348    1.0000 </r>
       <r>   12.2030    1.0000 </r>
       <r>   12.2883    1.0000 </r>
       <r>   12.9035    1.0000 </r>
       <r>   16.5394    0.0000 </r>
       <r>   26.0991    0.0000 </r>
       <r>   27.2662    0.0000 </r>
       <r>   30.9607    0.0000 </r>
       <r>   32.0101    0.0000 </r>
       <r>   36.0049    0.0000 </r>
       <r>   38.4577    0.0000 </r>
       <r>   40.6739    0.0000 </r>
       <r>   42.8953    0.0000 </r>
       <r>   43.7794    0.0000 </r>
       <r>   46.7506    0.0000 </r>
       <r>   49.6164    0.0000 </r>
       <r>   50.1684    0.0000 </r>
      </set>
      <set comment="kpoint 49">
       <r>    7.1545    1.0000 </r>
       <r>    7.9367    1.0000 </r>
       <r>    8.5268    1.0000 </r>
       <r>    9.2183    1.0000 </r>
       <r>   10.2617    1.0000 </r>
       <r>   10.7882    1.0000 </r>
       <r>   11.3704    1.0000 </r>
       <r>   12.1616    1.0000 </r>
       <r>   12.5084    1.0000 </r>
       <r>   12.7927    1.0000 </r>
       <r>   13.5094    0.0000 </r>
       <r>   17.6684    0.0000 </r>
       <r>   23.5389    0.0000 </r>
       <r>   26.8066    0.0000 </r>
       <r>   29.3190    0.0000 </r>
       <r>   30.5711    0.0000 </r>
       <r>   35.1011    0.0000 </r>
       <r>   36.1801    0.0000 </r>
       <r>   40.9747    0.0000 </r>
       <r>   41.5302    0.0000 </r>
       <r>   43.6631    0.0000 </r>
       <r>   46.9000    0.0000 </r>
       <r>   49.6268    0.0000 </r>
       <r>   50.2368    0.0000 </r>
      </set>
      <set comment="kpoint 50">
       <r>    7.2077    1.0000 </r>
       <r>    7.7430    1.0000 </r>
       <r>    8.7486    1.0000 </r>
       <r>    8.9765    1.0000 </r>
       <r>   10.1993    1.0000 </r>
       <r>   11.0865    1.0000 </r>
       <r>   11.8096    1.0000 </r>
       <r>   12.3891    1.0000 </r>
       <r>   12.8331    1.0000 </r>
       <r>   13.0276    1.0000 </r>
       <r>   14.7827    0.0000 </r>
       <r>   17.6261    0.0000 </r>
       <r>   22.7118    0.0000 </r>
       <r>   24.4929    0.0000 </r>
       <r>   29.4407    0.0000 </r>
       <r>   31.0055    0.0000 </r>
       <r>   33.6850    0.0000 </r>
       <r>   34.7188    0.0000 </r>
       <r>   40.6942    0.0000 </r>
       <r>   40.9381    0.0000 </r>
       <r>   44.8610    0.0000 </r>
       <r>   46.2811    0.0000 </r>
       <r>   49.3422    0.0000 </r>
       <r>   50.2472    0.0000 </r>
      </set>
      <set comment="kpoint 51">
       <r>    6.5325    1.0000 </r>
       <r>    8.4555    1.0000 </r>
       <r>    8.6740    1.0000 </r>
       <r>    9.1218    1.0000 </r>
       <r>   10.0774    1.0000 </r>
       <r>   10.3890    1.0000 </r>
       <r>   10.7427    1.0000 </r>
       <r>   11.5846    1.0000 </r>
       <r>   12.1842    1.0000 </r>
       <r>   12.3122    1.0000 </r>
       <r>   12.9606    1.0000 </r>
       <r>   16.4282    0.0000 </r>
       <r>   26.4279    0.0000 </r>
       <r>   28.5437    0.0000 </r>
       <r>   29.5219    0.0000 </r>
       <r>   33.0467    0.0000 </r>
       <r>   34.2342    0.0000 </r>
       <r>   39.9202    0.0000 </r>
       <r>   41.5157    0.0000 </r>
       <r>   42.8228    0.0000 </r>
       <r>   45.0630    0.0000 </r>
       <r>   47.3263    0.0000 </r>
       <r>   49.3238    0.0000 </r>
       <r>   49.4041    0.0000 </r>
      </set>
      <set comment="kpoint 52">
       <r>    7.3844    1.0000 </r>
       <r>    8.1814    1.0000 </r>
       <r>    8.6092    1.0000 </r>
       <r>    9.2111    1.0000 </r>
       <r>   10.0501    1.0000 </r>
       <r>   10.4758    1.0000 </r>
       <r>   10.7365    1.0000 </r>
       <r>   11.8663    1.0000 </r>
       <r>   12.3592    1.0000 </r>
       <r>   12.8369    1.0000 </r>
       <r>   13.7633    0.0000 </r>
       <r>   17.7623    0.0000 </r>
       <r>   25.2023    0.0000 </r>
       <r>   27.3096    0.0000 </r>
       <r>   27.9195    0.0000 </r>
       <r>   30.6027    0.0000 </r>
       <r>   32.6447    0.0000 </r>
       <r>   38.3797    0.0000 </r>
       <r>   40.8420    0.0000 </r>
       <r>   42.7433    0.0000 </r>
       <r>   45.3790    0.0000 </r>
       <r>   47.9444    0.0000 </r>
       <r>   49.4820    0.0000 </r>
       <r>   50.2214    0.0000 </r>
      </set>
      <set comment="kpoint 53">
       <r>    7.5627    1.0000 </r>
       <r>    8.1998    1.0000 </r>
       <r>    8.5666    1.0000 </r>
       <r>    9.1997    1.0000 </r>
       <r>    9.9200    1.0000 </r>
       <r>   10.7328    1.0000 </r>
       <r>   11.1022    1.0000 </r>
       <r>   12.1651    1.0000 </r>
       <r>   12.4526    1.0000 </r>
       <r>   13.0591    1.0000 </r>
       <r>   15.1700    0.0000 </r>
       <r>   18.7629    0.0000 </r>
       <r>   22.8700    0.0000 </r>
       <r>   26.0482    0.0000 </r>
[...]
       </set>
       <set comment="band 12">
        <r>  0.0088  0.0950  0.0046  0.2765  0.0999  0.0014  0.0148  0.0017  0.2414 </r>
        <r>  0.0004  0.0039  0.1118  0.0114  0.0041  0.0346  0.0006  0.0407  0.0100 </r>
       </set>
       <set comment="band 13">
        <r>  0.0063  0.0012  0.0401  0.0007  0.0041  0.0608  0.0003  0.1813  0.0014 </r>
        <r>  0.3119  0.0582  0.0008  0.0334  0.2028  0.0012  0.0164  0.0037  0.0706 </r>
       </set>
       <set comment="band 14">
        <r>  0.3119  0.0582  0.0008  0.0334  0.2028  0.0012  0.0164  0.0037  0.0706 </r>
        <r>  0.0063  0.0012  0.0401  0.0007  0.0041  0.0608  0.0003  0.1813  0.0014 </r>
       </set>
       <set comment="band 15">
        <r>  0.0292  0.0393  0.0146  0.0131  0.0147  0.1357  0.0092  0.0555  0.0049 </r>
        <r>  0.1460  0.1969  0.0029  0.0657  0.0737  0.0271  0.0461  0.0111  0.0246 </r>
       </set>
       <set comment="band 16">
        <r>  0.1460  0.1969  0.0029  0.0657  0.0737  0.0271  0.0461  0.0111  0.0246 </r>
        <r>  0.0292  0.0393  0.0146  0.0131  0.0147  0.1357  0.0092  0.0555  0.0049 </r>
       </set>
       <set comment="band 17">
        <r>  0.0002  0.0023  0.2307  0.0060  0.0007  0.0437  0.0005  0.0945  0.0012 </r>
        <r>  0.0026  0.0353  0.0152  0.0906  0.0103  0.0029  0.0075  0.0062  0.0186 </r>
       </set>
       <set comment="band 18">
        <r>  0.0026  0.0353  0.0152  0.0906  0.0103  0.0029  0.0075  0.0062  0.0186 </r>
        <r>  0.0002  0.0023  0.2307  0.0060  0.0007  0.0437  0.0005  0.0945  0.0012 </r>
       </set>
       <set comment="band 19">
        <r>  0.0004  0.0000  0.0273  0.0000  0.0016  0.1163  0.0031  0.2702  0.0005 </r>
        <r>  0.0445  0.0028  0.0002  0.0025  0.1950  0.0010  0.3705  0.0022  0.0650 </r>
       </set>
       <set comment="band 20">
        <r>  0.0445  0.0028  0.0002  0.0025  0.1950  0.0010  0.3705  0.0022  0.0650 </r>
        <r>  0.0004  0.0000  0.0273  0.0000  0.0016  0.1163  0.0031  0.2702  0.0005 </r>
       </set>
       <set comment="band 21">
        <r>  0.0243  0.1374  0.0174  0.0467  0.0021  0.0018  0.0436  0.0012  0.0024 </r>
        <r>  0.0021  0.0121  0.1971  0.0041  0.0002  0.0204  0.0038  0.0138  0.0002 </r>
       </set>
       <set comment="band 22">
        <r>  0.0021  0.0121  0.1971  0.0041  0.0002  0.0204  0.0038  0.0138  0.0002 </r>
        <r>  0.0243  0.1374  0.0174  0.0467  0.0021  0.0018  0.0436  0.0012  0.0024 </r>
       </set>
       <set comment="band 23">
        <r>  0.7752  0.0112  0.0007  0.0040  0.1407  0.0308  0.0684  0.0120  0.0469 </r>
        <r>  0.0943  0.0014  0.0055  0.0005  0.0171  0.2531  0.0083  0.0988  0.0057 </r>
       </set>
       <set comment="band 24">
        <r>  0.0943  0.0014  0.0055  0.0005  0.0171  0.2531  0.0083  0.0988  0.0057 </r>
        <r>  0.7752  0.0112  0.0007  0.0040  0.1407  0.0308  0.0684  0.0120  0.0469 </r>
       </set>
      </set>
      <set comment="kpoint 93">
       <set comment="band 1">
        <r>  0.0901  0.0149  0.0059  0.0517  0.0525  0.0001  0.0477  0.1294  0.0408 </r>
        <r>  0.0302  0.0050  0.0177  0.0173  0.0176  0.0002  0.0160  0.3860  0.0137 </r>
       </set>
       <set comment="band 2">
        <r>  0.0302  0.0050  0.0177  0.0173  0.0176  0.0002  0.0160  0.3860  0.0137 </r>
        <r>  0.0901  0.0149  0.0059  0.0517  0.0525  0.0001  0.0477  0.1294  0.0408 </r>
       </set>
       <set comment="band 3">
        <r>  0.0024  0.0056  0.0388  0.0008  0.0471  0.0973  0.0019  0.0059  0.0022 </r>
        <r>  0.0306  0.0707  0.0031  0.0099  0.5956  0.0077  0.0243  0.0005  0.0282 </r>
       </set>
       <set comment="band 4">
        <r>  0.0306  0.0707  0.0031  0.0099  0.5956  0.0077  0.0243  0.0005  0.0282 </r>
        <r>  0.0024  0.0056  0.0388  0.0008  0.0471  0.0973  0.0019  0.0059  0.0022 </r>
       </set>
       <set comment="band 5">
        <r>  0.0011  0.0001  0.0145  0.0362  0.0041  0.1754  0.0811  0.0119  0.0488 </r>
        <r>  0.0035  0.0002  0.0048  0.1108  0.0126  0.0573  0.2482  0.0039  0.1495 </r>
       </set>
       <set comment="band 6">
        <r>  0.0035  0.0002  0.0048  0.1108  0.0126  0.0573  0.2482  0.0039  0.1495 </r>
        <r>  0.0011  0.0001  0.0145  0.0362  0.0041  0.1754  0.0811  0.0119  0.0488 </r>
       </set>
       <set comment="band 7">
        <r>  0.0087  0.0000  0.0000  0.0016  0.0855  0.1528  0.0294  0.0264  0.1471 </r>
        <r>  0.0039  0.0000  0.0000  0.0007  0.0381  0.3428  0.0131  0.0592  0.0656 </r>
       </set>
       <set comment="band 8">
        <r>  0.0039  0.0000  0.0000  0.0007  0.0381  0.3428  0.0131  0.0592  0.0656 </r>
        <r>  0.0087  0.0000  0.0000  0.0016  0.0855  0.1528  0.0294  0.0264  0.1471 </r>
       </set>
       <set comment="band 9">
        <r>  0.0000  0.0000  0.0045  0.0003  0.0006  0.0844  0.0321  0.1971  0.0105 </r>
        <r>  0.0000  0.0001  0.0003  0.0043  0.0083  0.0057  0.4755  0.0133  0.1547 </r>
       </set>
       <set comment="band 10">
        <r>  0.0000  0.0001  0.0003  0.0043  0.0083  0.0057  0.4755  0.0133  0.1547 </r>
        <r>  0.0000  0.0000  0.0045  0.0003  0.0006  0.0844  0.0321  0.1971  0.0105 </r>
       </set>
       <set comment="band 11">
        <r>  0.0045  0.0002  0.0934  0.0128  0.0010  0.0084  0.0001  0.1329  0.0196 </r>
        <r>  0.0805  0.0044  0.0052  0.2310  0.0175  0.0005  0.0013  0.0074  0.3526 </r>
       </set>
       <set comment="band 12">
        <r>  0.0805  0.0044  0.0052  0.2310  0.0175  0.0005  0.0013  0.0074  0.3526 </r>
        <r>  0.0045  0.0002  0.0934  0.0128  0.0010  0.0084  0.0001  0.1329  0.0196 </r>
       </set>
       <set comment="band 13">
        <r>  0.0000  0.3012  0.0090  0.0088  0.3506  0.0074  0.0033  0.0098  0.0014 </r>
        <r>  0.0000  0.0419  0.0644  0.0012  0.0488  0.0533  0.0005  0.0704  0.0002 </r>
       </set>
       <set comment="band 14">
        <r>  0.0000  0.0419  0.0644  0.0012  0.0488  0.0533  0.0005  0.0704  0.0002 </r>
        <r>  0.0000  0.3012  0.0090  0.0088  0.3506  0.0074  0.0033  0.0098  0.0014 </r>
       </set>
       <set comment="band 15">
        <r>  0.0033  0.0000  0.0045  0.0015  0.0000  0.1572  0.0007  0.1288  0.0000 </r>
        <r>  0.3787  0.0038  0.0000  0.1728  0.0035  0.0014  0.0804  0.0011  0.0006 </r>
       </set>
       <set comment="band 16">
        <r>  0.3787  0.0038  0.0000  0.1728  0.0035  0.0014  0.0804  0.0011  0.0006 </r>
        <r>  0.0033  0.0000  0.0045  0.0015  0.0000  0.1572  0.0007  0.1288  0.0000 </r>
       </set>
       <set comment="band 17">
        <r>  0.0188  0.0004  0.1437  0.0342  0.0007  0.0256  0.0511  0.0673  0.0162 </r>
        <r>  0.0240  0.0005  0.1129  0.0435  0.0008  0.0202  0.0650  0.0529  0.0206 </r>
       </set>
       <set comment="band 18">
        <r>  0.0240  0.0005  0.1129  0.0435  0.0008  0.0202  0.0650  0.0529  0.0206 </r>
        <r>  0.0188  0.0004  0.1437  0.0342  0.0007  0.0256  0.0511  0.0673  0.0162 </r>
       </set>
       <set comment="band 19">
        <r>  0.0000  0.0000  0.0728  0.0000  0.0001  0.1383  0.0001  0.0917  0.0000 </r>
        <r>  0.0142  0.0491  0.0000  0.0211  0.1512  0.0001  0.1168  0.0000  0.0289 </r>
       </set>
       <set comment="band 20">
        <r>  0.0142  0.0491  0.0000  0.0211  0.1512  0.0001  0.1168  0.0000  0.0289 </r>
        <r>  0.0000  0.0000  0.0728  0.0000  0.0001  0.1383  0.0001  0.0917  0.0000 </r>
       </set>
       <set comment="band 21">
        <r>  0.0012  0.0003  0.0860  0.0015  0.0029  0.0002  0.0102  0.2740  0.0015 </r>
        <r>  0.0328  0.0081  0.0031  0.0405  0.0800  0.0000  0.2832  0.0099  0.0420 </r>
       </set>
       <set comment="band 22">
        <r>  0.0328  0.0081  0.0031  0.0405  0.0800  0.0000  0.2832  0.0099  0.0420 </r>
        <r>  0.0012  0.0003  0.0860  0.0015  0.0029  0.0002  0.0102  0.2740  0.0015 </r>
       </set>
       <set comment="band 23">
        <r>  0.0062  0.2501  0.0106  0.0014  0.1676  0.0049  0.0002  0.0017  0.0000 </r>
        <r>  0.0009  0.0376  0.0703  0.0002  0.0252  0.0326  0.0000  0.0110  0.0000 </r>
       </set>
       <set comment="band 24">
        <r>  0.0009  0.0376  0.0703  0.0002  0.0252  0.0326  0.0000  0.0110  0.0000 </r>
        <r>  0.0062  0.2501  0.0106  0.0014  0.1676  0.0049  0.0002  0.0017  0.0000 </r>
       </set>
      </set>
      <set comment="kpoint 94">
       <set comment="band 1">
        <r>  0.0535  0.0277  0.0010  0.0331  0.0924  0.0117  0.0580  0.1253  0.0430 </r>
        <r>  0.0191  0.0099  0.0028  0.0118  0.0330  0.0327  0.0207  0.3506  0.0153 </r>
       </set>
       <set comment="band 2">
        <r>  0.0191  0.0099  0.0028  0.0118  0.0330  0.0327  0.0207  0.3506  0.0153 </r>
        <r>  0.0535  0.0277  0.0010  0.0331  0.0924  0.0117  0.0580  0.1253  0.0430 </r>
       </set>
       <set comment="band 3">
        <r>  0.0018  0.0054  0.0069  0.0006  0.0268  0.2537  0.0177  0.0682  0.0021 </r>
        <r>  0.0179  0.0545  0.0007  0.0059  0.2716  0.0250  0.1793  0.0067  0.0209 </r>
       </set>
       <set comment="band 4">
        <r>  0.0179  0.0545  0.0007  0.0059  0.2716  0.0250  0.1793  0.0067  0.0209 </r>
        <r>  0.0018  0.0054  0.0069  0.0006  0.0268  0.2537  0.0177  0.0682  0.0021 </r>
       </set>
       <set comment="band 5">
        <r>  0.0043  0.0148  0.0311  0.0650  0.0974  0.0893  0.0190  0.0070  0.1217 </r>
        <r>  0.0056  0.0192  0.0240  0.0843  0.1262  0.0689  0.0246  0.0054  0.1577 </r>
       </set>
       <set comment="band 6">
        <r>  0.0056  0.0192  0.0240  0.0843  0.1262  0.0689  0.0246  0.0054  0.1577 </r>
        <r>  0.0043  0.0148  0.0311  0.0650  0.0974  0.0893  0.0190  0.0070  0.1217 </r>
       </set>
       <set comment="band 7">
        <r>  0.0011  0.0010  0.0016  0.0046  0.0438  0.2347  0.0057  0.0930  0.0837 </r>
        <r>  0.0031  0.0029  0.0006  0.0127  0.1214  0.0846  0.0158  0.0335  0.2323 </r>
       </set>
       <set comment="band 8">
        <r>  0.0031  0.0029  0.0006  0.0127  0.1214  0.0846  0.0158  0.0335  0.2323 </r>
        <r>  0.0011  0.0010  0.0016  0.0046  0.0438  0.2347  0.0057  0.0930  0.0837 </r>
       </set>
       <set comment="band 9">
        <r>  0.0001  0.0000  0.0016  0.0001  0.0005  0.1006  0.0313  0.1742  0.0024 </r>
        <r>  0.0016  0.0002  0.0001  0.0024  0.0095  0.0052  0.6025  0.0090  0.0470 </r>
       </set>
       <set comment="band 10">
        <r>  0.0016  0.0002  0.0001  0.0024  0.0095  0.0052  0.6025  0.0090  0.0470 </r>
        <r>  0.0001  0.0000  0.0016  0.0001  0.0005  0.1006  0.0313  0.1742  0.0024 </r>
       </set>
       <set comment="band 11">
        <r>  0.0067  0.0071  0.1061  0.0654  0.0085  0.0101  0.0004  0.0522  0.0662 </r>
        <r>  0.0264  0.0281  0.0268  0.2584  0.0337  0.0026  0.0014  0.0132  0.2616 </r>
       </set>
       <set comment="band 12">
        <r>  0.0264  0.0281  0.0268  0.2584  0.0337  0.0026  0.0014  0.0132  0.2616 </r>
        <r>  0.0067  0.0071  0.1061  0.0654  0.0085  0.0101  0.0004  0.0522  0.0662 </r>
       </set>
       <set comment="band 13">
        <r>  0.0009  0.0022  0.0511  0.0002  0.0024  0.0656  0.0001  0.1231  0.0002 </r>
        <r>  0.1099  0.2681  0.0004  0.0188  0.3031  0.0005  0.0063  0.0010  0.0213 </r>
       </set>
       <set comment="band 14">
        <r>  0.1099  0.2681  0.0004  0.0188  0.3031  0.0005  0.0063  0.0010  0.0213 </r>
        <r>  0.0009  0.0022  0.0511  0.0002  0.0024  0.0656  0.0001  0.1231  0.0002 </r>
       </set>
       <set comment="band 15">
        <r>  0.0354  0.0072  0.0096  0.0065  0.0035  0.1593  0.0053  0.0991  0.0005 </r>
        <r>  0.3539  0.0716  0.0010  0.0653  0.0351  0.0159  0.0530  0.0099  0.0045 </r>
       </set>
       <set comment="band 16">
        <r>  0.3539  0.0716  0.0010  0.0653  0.0351  0.0159  0.0530  0.0099  0.0045 </r>
        <r>  0.0354  0.0072  0.0096  0.0065  0.0035  0.1593  0.0053  0.0991  0.0005 </r>
       </set>
       <set comment="band 17">
        <r>  0.0022  0.0023  0.1807  0.0233  0.0008  0.0551  0.0067  0.1043  0.0114 </r>
        <r>  0.0077  0.0079  0.0521  0.0807  0.0027  0.0159  0.0233  0.0301  0.0395 </r>
       </set>
       <set comment="band 18">
        <r>  0.0077  0.0079  0.0521  0.0807  0.0027  0.0159  0.0233  0.0301  0.0395 </r>
        <r>  0.0022  0.0023  0.1807  0.0233  0.0008  0.0551  0.0067  0.1043  0.0114 </r>
       </set>
       <set comment="band 19">
        <r>  0.0037  0.0107  0.1312  0.0003  0.0252  0.1065  0.0160  0.1500  0.0030 </r>
        <r>  0.0182  0.0525  0.0268  0.0013  0.1233  0.0218  0.0783  0.0307  0.0146 </r>
       </set>
       <set comment="band 20">
        <r>  0.0182  0.0525  0.0268  0.0013  0.1233  0.0218  0.0783  0.0307  0.0146 </r>
        <r>  0.0037  0.0107  0.1312  0.0003  0.0252  0.1065  0.0160  0.1500  0.0030 </r>
       </set>
       <set comment="band 21">
        <r>  0.0158  0.0096  0.0382  0.0076  0.0016  0.0412  0.1126  0.0823  0.0023 </r>
        <r>  0.0419  0.0253  0.0144  0.0202  0.0042  0.0155  0.2980  0.0311  0.0062 </r>
       </set>
       <set comment="band 22">
        <r>  0.0419  0.0253  0.0144  0.0202  0.0042  0.0155  0.2980  0.0311  0.0062 </r>
        <r>  0.0158  0.0096  0.0382  0.0076  0.0016  0.0412  0.1126  0.0823  0.0023 </r>
       </set>
       <set comment="band 23">
        <r>  0.4023  0.0309  0.0253  0.0021  0.0514  0.0905  0.0008  0.0362  0.0100 </r>
        <r>  1.1660  0.0895  0.0087  0.0060  0.1489  0.0312  0.0024  0.0125  0.0290 </r>
       </set>
       <set comment="band 24">
        <r>  1.1660  0.0895  0.0087  0.0060  0.1489  0.0312  0.0024  0.0125  0.0290 </r>
        <r>  0.4023  0.0309  0.0253  0.0021  0.0514  0.0905  0.0008  0.0362  0.0100 </r>
       </set>
      </set>
      <set comment="kpoint 95">
       <set comment="band 1">
        <r>  0.0000  0.0506  0.0000  0.0506  0.0883  0.0909  0.0000  0.0909  0.0883 </r>
        <r>  0.0000  0.0351  0.0000  0.0351  0.0613  0.1308  0.0000  0.1308  0.0613 </r>
       </set>
       <set comment="band 2">
        <r>  0.0000  0.0351  0.0000  0.0351  0.0613  0.1308  0.0000  0.1308  0.0613 </r>
        <r>  0.0000  0.0506  0.0000  0.0506  0.0883  0.0909  0.0000  0.0909  0.0883 </r>
       </set>
       <set comment="band 3">
        <r>  0.0785  0.0000  0.0000  0.0000  0.0000  0.0131  0.2698  0.0131  0.0000 </r>
        <r>  0.0035  0.0000  0.0000  0.0000  0.0000  0.2950  0.0120  0.2950  0.0000 </r>
       </set>
       <set comment="band 4">
        <r>  0.0035  0.0000  0.0000  0.0000  0.0000  0.2950  0.0120  0.2950  0.0000 </r>
        <r>  0.0785  0.0000  0.0000  0.0000  0.0000  0.0131  0.2698  0.0131  0.0000 </r>
       </set>
       <set comment="band 5">
        <r>  0.0000  0.0303  0.0414  0.0303  0.1216  0.0000  0.0000  0.0000  0.1216 </r>
        <r>  0.0000  0.0611  0.0205  0.0611  0.2453  0.0000  0.0000  0.0000  0.2453 </r>
       </set>
       <set comment="band 6">
        <r>  0.0000  0.0611  0.0205  0.0611  0.2453  0.0000  0.0000  0.0000  0.2453 </r>
        <r>  0.0000  0.0303  0.0414  0.0303  0.1216  0.0000  0.0000  0.0000  0.1216 </r>
       </set>
       <set comment="band 7">
        <r>  0.0000  0.0011  0.0000  0.0011  0.0512  0.1757  0.0000  0.1757  0.0512 </r>
        <r>  0.0000  0.0047  0.0000  0.0047  0.2128  0.0423  0.0000  0.0423  0.2128 </r>
       </set>
       <set comment="band 8">
        <r>  0.0000  0.0047  0.0000  0.0047  0.2128  0.0423  0.0000  0.0423  0.2128 </r>
        <r>  0.0000  0.0011  0.0000  0.0011  0.0512  0.1757  0.0000  0.1757  0.0512 </r>
       </set>
       <set comment="band 9">
        <r>  0.0002  0.0000  0.0000  0.0000  0.0000  0.1377  0.0271  0.1377  0.0000 </r>
        <r>  0.0045  0.0000  0.0000  0.0000  0.0000  0.0056  0.6683  0.0056  0.0000 </r>
       </set>
       <set comment="band 10">
        <r>  0.0045  0.0000  0.0000  0.0000  0.0000  0.0056  0.6683  0.0056  0.0000 </r>
        <r>  0.0002  0.0000  0.0000  0.0000  0.0000  0.1377  0.0271  0.1377  0.0000 </r>
       </set>
       <set comment="band 11">
        <r>  0.0000  0.0114  0.1930  0.0114  0.0115  0.0000  0.0000  0.0000  0.0115 </r>
        <r>  0.0000  0.1861  0.0119  0.1861  0.1873  0.0000  0.0000  0.0000  0.1873 </r>
       </set>
       <set comment="band 12">
        <r>  0.0000  0.1861  0.0119  0.1861  0.1873  0.0000  0.0000  0.0000  0.1873 </r>
        <r>  0.0000  0.0114  0.1930  0.0114  0.0115  0.0000  0.0000  0.0000  0.0115 </r>
       </set>
       <set comment="band 13">
        <r>  0.0000  0.0028  0.0000  0.0028  0.0022  0.1059  0.0000  0.1059  0.0022 </r>
        <r>  0.0000  0.2013  0.0000  0.2013  0.1582  0.0015  0.0000  0.0015  0.1582 </r>
       </set>
       <set comment="band 14">
        <r>  0.0000  0.2013  0.0000  0.2013  0.1582  0.0015  0.0000  0.0015  0.1582 </r>
        <r>  0.0000  0.0028  0.0000  0.0028  0.0022  0.1059  0.0000  0.1059  0.0022 </r>
       </set>
       <set comment="band 15">
        <r>  0.0171  0.0000  0.0000  0.0000  0.0000  0.1618  0.0018  0.1618  0.0000 </r>
        <r>  0.5412  0.0000  0.0000  0.0000  0.0000  0.0051  0.0562  0.0051  0.0000 </r>
       </set>
       <set comment="band 16">
        <r>  0.5412  0.0000  0.0000  0.0000  0.0000  0.0051  0.0562  0.0051  0.0000 </r>
        <r>  0.0171  0.0000  0.0000  0.0000  0.0000  0.1618  0.0018  0.1618  0.0000 </r>
       </set>
       <set comment="band 17">
        <r>  0.0000  0.0042  0.0000  0.0042  0.0023  0.2324  0.0000  0.2324  0.0023 </r>
        <r>  0.0000  0.0588  0.0000  0.0588  0.0327  0.0165  0.0000  0.0165  0.0327 </r>
       </set>
       <set comment="band 18">
        <r>  0.0000  0.0588  0.0000  0.0588  0.0327  0.0165  0.0000  0.0165  0.0327 </r>
        <r>  0.0000  0.0042  0.0000  0.0042  0.0023  0.2324  0.0000  0.2324  0.0023 </r>
       </set>
       <set comment="band 19">
        <r>  0.0000  0.0025  0.4194  0.0025  0.0032  0.0000  0.0000  0.0000  0.0032 </r>
        <r>  0.0000  0.0475  0.0221  0.0475  0.0607  0.0000  0.0000  0.0000  0.0607 </r>
       </set>
       <set comment="band 20">
        <r>  0.0000  0.0475  0.0221  0.0475  0.0607  0.0000  0.0000  0.0000  0.0607 </r>
        <r>  0.0000  0.0025  0.4194  0.0025  0.0032  0.0000  0.0000  0.0000  0.0032 </r>
       </set>
       <set comment="band 21">
        <r>  0.0071  0.0000  0.0000  0.0000  0.0000  0.1033  0.0348  0.1033  0.0000 </r>
        <r>  0.1068  0.0000  0.0000  0.0000  0.0000  0.0069  0.5222  0.0069  0.0000 </r>
       </set>
       <set comment="band 22">
        <r>  0.1068  0.0000  0.0000  0.0000  0.0000  0.0069  0.5222  0.0069  0.0000 </r>
        <r>  0.0071  0.0000  0.0000  0.0000  0.0000  0.1033  0.0348  0.1033  0.0000 </r>
       </set>
       <set comment="band 23">
        <r>  5.7693  0.0000  0.0000  0.0000  0.0000  0.0002  0.0065  0.0002  0.0000 </r>
        <r>  0.1259  0.0000  0.0000  0.0000  0.0000  0.0097  0.0001  0.0097  0.0000 </r>
       </set>
       <set comment="band 24">
        <r>  0.1259  0.0000  0.0000  0.0000  0.0000  0.0097  0.0001  0.0097  0.0000 </r>
        <r>  5.7693  0.0000  0.0000  0.0000  0.0000  0.0002  0.0065  0.0002  0.0000 </r>
       </set>
      </set>
     </set>
    </set>
   </array>
  </projected>
 </calculation>
 <structure name="finalpos" >
  <crystal>
   <varray name="basis" >
    <v>       1.17136954      -2.02887155       0.00000000 </v>
    <v>       1.17136954       2.02887155       0.00000000 </v>
    <v>       0.00000000       0.00000000       3.77894892 </v>
   </varray>
   <i name="volume">     17.96178508 </i>
   <varray name="rec_basis" >
    <v>       0.42685078      -0.24644241       0.00000000 </v>
    <v>       0.42685078       0.24644241       0.00000000 </v>
    <v>       0.00000000       0.00000000       0.26462385 </v>
   </varray>
  </crystal>
  <varray name="positions" >
   <v>       0.33333333       0.66666667       0.25000000 </v>
   <v>       0.66666667       0.33333333       0.75000000 </v>
  </varray>
 </structure>
</modeling>
