   2   2   0   0
  0.2137190E+02  0.2470000E-09  0.2470000E-09  0.8090000E-09  0.5000000E-15
  1.000000000000000E-004
  CAR 
 Co-hcc                                  
     21.99071675     -4.30963058  301      3.17332546      1.00000000
     -4.310  0.0000E+00  0.0000E+00  0.0000E+00  0.0000E+00
     -4.222  0.0000E+00  0.0000E+00  0.0000E+00  0.0000E+00
     -4.134  0.0000E+00  0.0000E+00  0.0000E+00  0.0000E+00
     -4.047  0.0000E+00  0.0000E+00  0.0000E+00  0.0000E+00
     -3.959  0.0000E+00  0.0000E+00  0.0000E+00  0.0000E+00
     -3.871  0.0000E+00  0.0000E+00  0.0000E+00  0.0000E+00
     -3.784  0.0000E+00  0.0000E+00  0.0000E+00  0.0000E+00
     -3.696  0.0000E+00  0.0000E+00  0.0000E+00  0.0000E+00
     -3.608  0.0000E+00  0.0000E+00  0.0000E+00  0.0000E+00
     -3.521  0.0000E+00  0.0000E+00  0.0000E+00  0.0000E+00
     -3.433  0.0000E+00  0.0000E+00  0.0000E+00  0.0000E+00
     -3.345  0.9368E-12  0.0000E+00  0.8213E-13  0.0000E+00
     -3.258  0.7691E-06  0.0000E+00  0.6742E-07  0.0000E+00
     -3.170  0.2196E-02  0.0000E+00  0.1926E-03  0.0000E+00
     -3.082  0.5465E-01  0.0000E+00  0.4984E-02  0.0000E+00
     -2.995  0.6870E-01  0.1330E-10  0.1101E-01  0.1166E-11
     -2.907  0.4306E-01  0.4015E-05  0.1478E-01  0.3519E-06
     -2.819  0.4484E-01  0.4425E-02  0.1871E-01  0.3883E-03
     -2.732  0.5518E-01  0.5891E-01  0.2355E-01  0.5553E-02
     -2.644  0.7240E-01  0.5119E-01  0.2990E-01  0.1004E-01
     -2.556  0.1634E+00  0.3475E-01  0.4422E-01  0.1309E-01
     -2.469  0.4626E+00  0.4010E-01  0.8478E-01  0.1660E-01
     -2.381  0.3128E+00  0.2094E-01  0.1122E+00  0.1844E-01
     -2.293  0.3029E+00  0.4517E-01  0.1388E+00  0.2240E-01
     -2.206  0.3087E+00  0.1862E+00  0.1658E+00  0.3873E-01
     -2.118  0.4451E+00  0.4439E+00  0.2048E+00  0.7764E-01
     -2.030  0.1574E+00  0.3119E+00  0.2186E+00  0.1050E+00
     -1.943  0.1292E-02  0.1310E+00  0.2187E+00  0.1165E+00
     -1.855  0.6101E-07  0.2612E+00  0.2187E+00  0.1394E+00
     -1.767  0.5729E-11  0.1233E+00  0.2188E+00  0.1502E+00
     -1.680  0.4859E-05  0.2516E+00  0.2188E+00  0.1722E+00
     -1.592  0.1474E-01  0.3011E+00  0.2200E+00  0.1986E+00
     -1.504  0.3644E+00  0.2211E+00  0.2520E+00  0.2180E+00
     -1.417  0.4693E+00  0.8456E-02  0.2931E+00  0.2187E+00
     -1.329  0.3770E+00  0.2769E-05  0.3262E+00  0.2188E+00
     -1.241  0.8591E+00  0.3471E-03  0.4015E+00  0.2188E+00
     -1.154  0.1479E+01  0.8740E-01  0.5312E+00  0.2264E+00
     -1.066  0.1620E+01  0.4059E+00  0.6732E+00  0.2620E+00
     -0.978  0.2047E+01  0.3132E+00  0.8526E+00  0.2895E+00
     -0.891  0.3034E+00  0.1454E+00  0.8792E+00  0.3022E+00
     -0.803  0.2414E+01  0.2741E+00  0.1091E+01  0.3263E+00
     -0.715  0.1802E+01  0.2390E+00  0.1249E+01  0.3472E+00
     -0.628  0.7654E+00  0.6819E+00  0.1316E+01  0.4070E+00
     -0.540  0.3027E+01  0.6387E+00  0.1581E+01  0.4630E+00
     -0.452  0.4974E+00  0.4225E+00  0.1625E+01  0.5000E+00
     -0.365  0.2336E-01  0.2024E+00  0.1627E+01  0.5178E+00
     -0.277  0.5360E+00  0.2852E+00  0.1674E+01  0.5428E+00
     -0.189  0.1607E+01  0.3169E+00  0.1815E+01  0.5706E+00
     -0.102  0.6798E+01  0.2555E+00  0.2411E+01  0.5930E+00
     -0.014  0.3417E+01  0.9097E-02  0.2710E+01  0.5937E+00
      0.074  0.3707E+01  0.2921E-05  0.3035E+01  0.5937E+00
      0.161  0.4262E+01  0.3478E-05  0.3409E+01  0.5938E+00
      0.249  0.3414E+01  0.2218E-01  0.3708E+01  0.5957E+00
      0.337  0.1594E+01  0.1099E+01  0.3848E+01  0.6920E+00
      0.424  0.2615E+01  0.1959E+01  0.4077E+01  0.8638E+00
      0.512  0.8954E+01  0.1459E+01  0.4862E+01  0.9917E+00
      0.600  0.2884E+01  0.9095E+00  0.5115E+01  0.1071E+01
      0.687  0.2634E+01  0.2959E+01  0.5346E+01  0.1331E+01
      0.775  0.1409E+01  0.3142E+01  0.5470E+01  0.1606E+01
      0.863  0.3332E+01  0.2134E+00  0.5762E+01  0.1625E+01
      0.950  0.4819E+01  0.4433E-03  0.6184E+01  0.1625E+01
      1.038  0.2496E+01  0.4981E-08  0.6403E+01  0.1625E+01
      1.126  0.6929E+01  0.1880E-15  0.7011E+01  0.1625E+01
      1.213  0.8859E+01  0.3090E-08  0.7787E+01  0.1625E+01
      1.301  0.7441E+01  0.5651E-03  0.8440E+01  0.1625E+01
      1.389  0.4191E+01  0.3425E+00  0.8807E+01  0.1655E+01
      1.476  0.6821E+01  0.2077E+01  0.9405E+01  0.1837E+01
      1.564  0.4366E+01  0.2287E+01  0.9788E+01  0.2038E+01
      1.652  0.2079E+01  0.1868E+01  0.9970E+01  0.2201E+01
      1.739  0.2484E+01  0.3152E+01  0.1019E+02  0.2478E+01
      1.827  0.1382E+01  0.5728E+01  0.1031E+02  0.2980E+01
      1.915  0.4186E-01  0.5422E+01  0.1031E+02  0.3455E+01
      2.002  0.1586E-04  0.4356E+01  0.1031E+02  0.3837E+01
      2.090  0.4300E-01  0.7534E+01  0.1032E+02  0.4498E+01
      2.178  0.1391E+01  0.3361E+01  0.1044E+02  0.4792E+01
      2.265  0.7301E+00  0.9123E+00  0.1050E+02  0.4872E+01
      2.353  0.5382E-02  0.1722E+01  0.1050E+02  0.5023E+01
      2.441  0.2791E+00  0.2780E+01  0.1053E+02  0.5267E+01
      2.528  0.7917E+00  0.9956E+00  0.1060E+02  0.5354E+01
      2.616  0.7036E+00  0.7654E+00  0.1066E+02  0.5421E+01
      2.704  0.1423E+01  0.1010E+01  0.1078E+02  0.5510E+01
      2.791  0.8669E+00  0.3531E+01  0.1086E+02  0.5819E+01
      2.879  0.4804E+00  0.3115E+01  0.1090E+02  0.6092E+01
      2.967  0.7386E+00  0.1606E+01  0.1097E+02  0.6233E+01
      3.054  0.4164E+00  0.2846E+01  0.1100E+02  0.6483E+01
      3.142  0.7052E+00  0.3045E+01  0.1106E+02  0.6750E+01
      3.230  0.5901E+00  0.5834E+01  0.1112E+02  0.7261E+01
      3.317  0.2406E+00  0.6819E+01  0.1114E+02  0.7859E+01
      3.405  0.2541E+00  0.7475E+01  0.1116E+02  0.8514E+01
      3.493  0.3683E+00  0.6818E+01  0.1119E+02  0.9112E+01
      3.580  0.2736E+00  0.6081E+01  0.1122E+02  0.9645E+01
      3.668  0.6128E-02  0.2172E+01  0.1122E+02  0.9835E+01
      3.756  0.7211E-06  0.3651E+01  0.1122E+02  0.1016E+02
      3.843  0.2405E-12  0.1584E+01  0.1122E+02  0.1029E+02
      3.931  0.1234E-07  0.1866E+01  0.1122E+02  0.1046E+02
      4.019  0.6377E-03  0.4874E+00  0.1122E+02  0.1050E+02
      4.106  0.1203E+00  0.1339E+00  0.1123E+02  0.1051E+02
      4.194  0.2743E+00  0.7335E-01  0.1125E+02  0.1052E+02
      4.282  0.2056E-01  0.1514E+01  0.1125E+02  0.1065E+02
      4.369  0.3691E-04  0.1568E+01  0.1125E+02  0.1079E+02
      4.457  0.2961E-04  0.1818E+01  0.1125E+02  0.1095E+02
      4.545  0.2380E-01  0.1302E+01  0.1125E+02  0.1106E+02
      4.632  0.1392E+00  0.1526E+01  0.1127E+02  0.1120E+02
      4.720  0.1791E-01  0.2835E+00  0.1127E+02  0.1122E+02
      4.808  0.1833E+00  0.7595E-03  0.1128E+02  0.1122E+02
      4.895  0.1742E+00  0.5494E-01  0.1130E+02  0.1123E+02
      4.983  0.2244E+00  0.2758E+00  0.1132E+02  0.1125E+02
      5.071  0.5203E+00  0.2562E-01  0.1137E+02  0.1125E+02
      5.158  0.1617E+01  0.2401E-03  0.1151E+02  0.1125E+02
      5.246  0.1177E+01  0.7031E-01  0.1161E+02  0.1126E+02
      5.334  0.6752E+00  0.4205E+00  0.1167E+02  0.1130E+02
      5.421  0.1467E+01  0.2521E+00  0.1180E+02  0.1132E+02
      5.509  0.5208E+00  0.3212E+00  0.1184E+02  0.1135E+02
      5.597  0.6079E+00  0.4956E+00  0.1190E+02  0.1139E+02
      5.685  0.4885E+00  0.4367E+00  0.1194E+02  0.1143E+02
      5.772  0.7152E+00  0.1330E+00  0.1200E+02  0.1144E+02
      5.860  0.5130E+00  0.6863E-01  0.1205E+02  0.1145E+02
      5.948  0.5974E+00  0.2218E+00  0.1210E+02  0.1146E+02
      6.035  0.4114E+00  0.1271E+01  0.1214E+02  0.1158E+02
      6.123  0.2664E-01  0.9646E+00  0.1214E+02  0.1166E+02
      6.211  0.5661E-01  0.7513E+00  0.1214E+02  0.1173E+02
      6.298  0.2751E+00  0.7071E+00  0.1217E+02  0.1179E+02
      6.386  0.2769E-01  0.8674E+00  0.1217E+02  0.1186E+02
      6.474  0.2332E-01  0.6896E+00  0.1217E+02  0.1193E+02
      6.561  0.3458E-02  0.1285E+01  0.1217E+02  0.1204E+02
      6.649  0.2127E-03  0.4194E+00  0.1217E+02  0.1207E+02
      6.737  0.9178E-01  0.2116E+00  0.1218E+02  0.1209E+02
      6.824  0.6000E+00  0.1921E+00  0.1223E+02  0.1211E+02
      6.912  0.3850E+00  0.5558E+00  0.1227E+02  0.1216E+02
      7.000  0.5147E+00  0.1463E+00  0.1231E+02  0.1217E+02
      7.087  0.1899E+00  0.4815E-02  0.1233E+02  0.1217E+02
      7.175  0.1508E-01  0.4167E-01  0.1233E+02  0.1218E+02
      7.263  0.2921E+00  0.2873E+00  0.1235E+02  0.1220E+02
      7.350  0.2178E+00  0.4225E+00  0.1237E+02  0.1224E+02
      7.438  0.1059E-01  0.6993E+00  0.1238E+02  0.1230E+02
      7.526  0.1169E+00  0.3280E+00  0.1239E+02  0.1233E+02
      7.613  0.5485E+00  0.3505E-02  0.1243E+02  0.1233E+02
      7.701  0.8136E-01  0.1073E-01  0.1244E+02  0.1233E+02
      7.789  0.2614E+00  0.2617E+00  0.1246E+02  0.1235E+02
      7.876  0.2510E+00  0.2561E+00  0.1249E+02  0.1237E+02
      7.964  0.2729E+00  0.4525E-01  0.1251E+02  0.1238E+02
      8.052  0.8678E-01  0.5661E+00  0.1252E+02  0.1243E+02
      8.139  0.3546E+00  0.2729E+00  0.1255E+02  0.1245E+02
      8.227  0.6320E+00  0.2410E-01  0.1260E+02  0.1245E+02
      8.315  0.5034E+00  0.3452E+00  0.1265E+02  0.1248E+02
      8.402  0.7810E+00  0.3456E+00  0.1272E+02  0.1251E+02
      8.490  0.1056E+01  0.1106E-01  0.1281E+02  0.1252E+02
      8.578  0.2207E+00  0.2323E-05  0.1283E+02  0.1252E+02
      8.665  0.4753E-02  0.4562E-03  0.1283E+02  0.1252E+02
      8.753  0.1192E+00  0.1570E+00  0.1284E+02  0.1253E+02
      8.841  0.3221E+00  0.9917E+00  0.1287E+02  0.1262E+02
      8.928  0.9052E-01  0.1136E+01  0.1287E+02  0.1272E+02
      9.016  0.2975E-03  0.3646E+00  0.1287E+02  0.1275E+02
      9.104  0.1145E-03  0.4079E+00  0.1288E+02  0.1278E+02
      9.191  0.6252E-01  0.4649E+00  0.1288E+02  0.1282E+02
      9.279  0.4834E+00  0.8407E-01  0.1292E+02  0.1283E+02
      9.367  0.6842E+00  0.3437E+00  0.1298E+02  0.1286E+02
      9.454  0.7185E+00  0.1481E+00  0.1305E+02  0.1287E+02
      9.542  0.4760E+00  0.1435E-02  0.1309E+02  0.1288E+02
      9.630  0.1641E+00  0.9745E-01  0.1310E+02  0.1288E+02
      9.717  0.2210E+00  0.3948E+00  0.1312E+02  0.1292E+02
      9.805  0.3033E+00  0.6168E-01  0.1315E+02  0.1292E+02
      9.893  0.6105E+00  0.6588E+00  0.1320E+02  0.1298E+02
      9.980  0.1249E+00  0.6651E+00  0.1321E+02  0.1304E+02
     10.068  0.5206E+00  0.3409E+00  0.1326E+02  0.1307E+02
     10.156  0.1050E+01  0.7396E+00  0.1335E+02  0.1313E+02
     10.243  0.8263E+00  0.5291E+00  0.1342E+02  0.1318E+02
     10.331  0.4965E+00  0.1483E+00  0.1347E+02  0.1319E+02
     10.419  0.4547E+00  0.6049E-01  0.1351E+02  0.1320E+02
     10.506  0.1778E+01  0.3746E+00  0.1366E+02  0.1323E+02
     10.594  0.1373E+01  0.5621E+00  0.1378E+02  0.1328E+02
     10.682  0.2731E+00  0.5352E+00  0.1381E+02  0.1333E+02
     10.769  0.1419E+00  0.2185E+00  0.1382E+02  0.1335E+02
     10.857  0.1221E+00  0.7771E+00  0.1383E+02  0.1342E+02
     10.945  0.3949E+00  0.5161E+00  0.1386E+02  0.1346E+02
     11.032  0.6851E-01  0.1068E+01  0.1387E+02  0.1355E+02
     11.120  0.1118E+00  0.8079E+00  0.1388E+02  0.1363E+02
     11.208  0.4099E+00  0.1215E+01  0.1392E+02  0.1373E+02
     11.295  0.1172E+01  0.7580E+00  0.1402E+02  0.1380E+02
     11.383  0.8693E+00  0.5816E+00  0.1409E+02  0.1385E+02
     11.471  0.3375E+00  0.6598E-01  0.1412E+02  0.1385E+02
     11.558  0.2015E+00  0.2160E+00  0.1414E+02  0.1387E+02
     11.646  0.5355E+00  0.1436E+00  0.1419E+02  0.1389E+02
     11.734  0.1425E+00  0.4666E+00  0.1420E+02  0.1393E+02
     11.821  0.4282E+00  0.4327E+00  0.1424E+02  0.1397E+02
     11.909  0.5935E+00  0.2950E+00  0.1429E+02  0.1399E+02
     11.997  0.3698E+00  0.6548E+00  0.1432E+02  0.1405E+02
     12.084  0.1404E+00  0.8969E+00  0.1434E+02  0.1413E+02
     12.172  0.1051E+00  0.1439E+01  0.1434E+02  0.1425E+02
     12.260  0.4398E+00  0.4773E+00  0.1438E+02  0.1430E+02
     12.347  0.7047E+00  0.2700E+00  0.1445E+02  0.1432E+02
     12.435  0.3075E+00  0.2675E-01  0.1447E+02  0.1432E+02
     12.523  0.2096E+00  0.1781E+00  0.1449E+02  0.1434E+02
     12.610  0.7784E+00  0.3068E+00  0.1456E+02  0.1436E+02
     12.698  0.1982E+00  0.5914E+00  0.1458E+02  0.1442E+02
     12.786  0.2691E+00  0.3344E+00  0.1460E+02  0.1444E+02
     12.873  0.5248E+00  0.3619E+00  0.1465E+02  0.1448E+02
     12.961  0.1055E+01  0.3917E+00  0.1474E+02  0.1451E+02
     13.049  0.8643E+00  0.2760E+00  0.1481E+02  0.1454E+02
     13.136  0.1124E+01  0.1224E+00  0.1491E+02  0.1455E+02
     13.224  0.4451E+00  0.6748E+00  0.1495E+02  0.1461E+02
     13.312  0.3898E+00  0.7923E+00  0.1499E+02  0.1467E+02
     13.399  0.3984E+00  0.8984E+00  0.1502E+02  0.1475E+02
     13.487  0.4002E+00  0.1286E+01  0.1506E+02  0.1487E+02
     13.575  0.1783E+00  0.5689E+00  0.1507E+02  0.1492E+02
     13.662  0.4338E+00  0.5336E+00  0.1511E+02  0.1496E+02
     13.750  0.8291E+00  0.2151E+00  0.1518E+02  0.1498E+02
     13.838  0.5898E+00  0.5727E-01  0.1523E+02  0.1499E+02
     13.925  0.2370E+00  0.3891E+00  0.1525E+02  0.1502E+02
     14.013  0.8113E+00  0.3869E+00  0.1533E+02  0.1505E+02
     14.101  0.1770E+00  0.1769E+00  0.1534E+02  0.1507E+02
     14.188  0.7640E-02  0.3436E+00  0.1534E+02  0.1510E+02
     14.276  0.5567E-01  0.1432E+01  0.1535E+02  0.1523E+02
     14.364  0.2466E+00  0.9217E+00  0.1537E+02  0.1531E+02
     14.451  0.1058E+00  0.3999E+00  0.1538E+02  0.1534E+02
     14.539  0.4671E-03  0.5594E-01  0.1538E+02  0.1535E+02
     14.627  0.5235E-02  0.2120E+00  0.1538E+02  0.1537E+02
     14.714  0.2152E+00  0.1416E+00  0.1540E+02  0.1538E+02
     14.802  0.1351E+00  0.1124E-02  0.1541E+02  0.1538E+02
     14.890  0.9672E-03  0.9122E-02  0.1541E+02  0.1538E+02
     14.977  0.8379E-02  0.2411E+00  0.1541E+02  0.1540E+02
     15.065  0.4086E+00  0.1058E+00  0.1545E+02  0.1541E+02
     15.153  0.2934E+00  0.4666E-03  0.1547E+02  0.1541E+02
     15.240  0.8907E-02  0.7205E-08  0.1547E+02  0.1541E+02
     15.328  0.3242E+00  0.1112E-05  0.1550E+02  0.1541E+02
     15.416  0.6880E+00  0.1035E-01  0.1556E+02  0.1541E+02
     15.503  0.7069E+00  0.4292E+00  0.1562E+02  0.1545E+02
     15.591  0.8424E+00  0.2714E+00  0.1570E+02  0.1547E+02
     15.679  0.2701E+00  0.1966E-02  0.1572E+02  0.1547E+02
     15.766  0.1370E-01  0.1691E-01  0.1572E+02  0.1547E+02
     15.854  0.7437E-03  0.5301E+00  0.1572E+02  0.1552E+02
     15.942  0.1355E+00  0.8491E+00  0.1573E+02  0.1559E+02
     16.029  0.2706E+00  0.5989E+00  0.1576E+02  0.1565E+02
     16.117  0.9110E-02  0.8276E+00  0.1576E+02  0.1572E+02
     16.205  0.1608E-05  0.1287E+00  0.1576E+02  0.1573E+02
     16.292  0.6976E-07  0.2866E+00  0.1576E+02  0.1576E+02
     16.380  0.1693E-02  0.2963E-01  0.1576E+02  0.1576E+02
     16.468  0.1604E+00  0.1989E-04  0.1577E+02  0.1576E+02
     16.555  0.1912E+00  0.3593E-04  0.1579E+02  0.1576E+02
     16.643  0.3207E-02  0.3845E-01  0.1579E+02  0.1576E+02
     16.731  0.2252E-06  0.2798E+00  0.1579E+02  0.1579E+02
     16.818  0.4258E-13  0.3813E-01  0.1579E+02  0.1579E+02
     16.906  0.0000E+00  0.3524E-04  0.1579E+02  0.1579E+02
     16.994  0.0000E+00  0.9968E-10  0.1579E+02  0.1579E+02
     17.081  0.0000E+00  0.0000E+00  0.1579E+02  0.1579E+02
     17.169  0.9777E-12  0.0000E+00  0.1579E+02  0.1579E+02
     17.257  0.1892E-05  0.0000E+00  0.1579E+02  0.1579E+02
     17.344  0.1135E-01  0.0000E+00  0.1579E+02  0.1579E+02
     17.432  0.4084E+00  0.2881E-10  0.1583E+02  0.1579E+02
     17.520  0.2899E+00  0.1616E-04  0.1585E+02  0.1579E+02
     17.607  0.3361E-02  0.2696E-01  0.1585E+02  0.1579E+02
     17.695  0.2802E-01  0.2767E+00  0.1585E+02  0.1582E+02
     17.783  0.4077E+00  0.8203E-01  0.1589E+02  0.1582E+02
     17.870  0.1577E+00  0.3197E+00  0.1590E+02  0.1585E+02
     17.958  0.6930E-03  0.6681E-01  0.1590E+02  0.1586E+02
     18.046  0.1143E-07  0.1189E-03  0.1590E+02  0.1586E+02
     18.133  0.7817E-05  0.2643E-03  0.1590E+02  0.1586E+02
     18.221  0.1927E-01  0.1016E+00  0.1591E+02  0.1587E+02
     18.309  0.2690E+00  0.4005E+00  0.1593E+02  0.1590E+02
     18.396  0.6805E-01  0.9467E-01  0.1593E+02  0.1591E+02
     18.484  0.1426E-03  0.2723E+00  0.1593E+02  0.1593E+02
     18.572  0.9773E-09  0.2177E-01  0.1593E+02  0.1593E+02
     18.659  0.1568E-05  0.1024E-04  0.1593E+02  0.1593E+02
     18.747  0.2407E-02  0.6222E-03  0.1594E+02  0.1593E+02
     18.835  0.2315E-01  0.1934E-01  0.1594E+02  0.1594E+02
     18.922  0.4143E-02  0.9696E-02  0.1594E+02  0.1594E+02
     19.010  0.5478E-05  0.5120E-04  0.1594E+02  0.1594E+02
     19.098  0.2078E-06  0.9661E-09  0.1594E+02  0.1594E+02
     19.185  0.3070E-02  0.4617E-16  0.1594E+02  0.1594E+02
     19.273  0.1890E+00  0.1859E-09  0.1595E+02  0.1594E+02
     19.361  0.1637E+00  0.5756E-04  0.1597E+02  0.1594E+02
     19.448  0.8829E-01  0.5769E-01  0.1598E+02  0.1594E+02
     19.536  0.8937E-01  0.4177E+00  0.1598E+02  0.1598E+02
     19.624  0.1243E-02  0.5917E-01  0.1598E+02  0.1598E+02
     19.711  0.7027E-07  0.6236E-04  0.1598E+02  0.1598E+02
     19.799  0.1061E-13  0.2237E-09  0.1598E+02  0.1598E+02
     19.887  0.0000E+00  0.0000E+00  0.1598E+02  0.1598E+02
     19.974  0.0000E+00  0.0000E+00  0.1598E+02  0.1598E+02
     20.062  0.0000E+00  0.0000E+00  0.1598E+02  0.1598E+02
     20.150  0.0000E+00  0.0000E+00  0.1598E+02  0.1598E+02
     20.237  0.0000E+00  0.0000E+00  0.1598E+02  0.1598E+02
     20.325  0.0000E+00  0.0000E+00  0.1598E+02  0.1598E+02
     20.413  0.9894E-17  0.0000E+00  0.1598E+02  0.1598E+02
     20.500  0.6450E-09  0.9894E-17  0.1598E+02  0.1598E+02
     20.588  0.8443E-04  0.4102E-09  0.1598E+02  0.1598E+02
     20.676  0.3634E-01  0.6429E-04  0.1599E+02  0.1598E+02
     20.763  0.1330E+00  0.3266E-01  0.1600E+02  0.1599E+02
     20.851  0.8750E-02  0.1353E+00  0.1600E+02  0.1600E+02
     20.939  0.3189E-05  0.1021E-01  0.1600E+02  0.1600E+02
     21.026  0.3361E-11  0.4419E-05  0.1600E+02  0.1600E+02
     21.114  0.0000E+00  0.5587E-11  0.1600E+02  0.1600E+02
     21.202  0.0000E+00  0.0000E+00  0.1600E+02  0.1600E+02
     21.289  0.0000E+00  0.0000E+00  0.1600E+02  0.1600E+02
     21.377  0.0000E+00  0.0000E+00  0.1600E+02  0.1600E+02
     21.465  0.0000E+00  0.0000E+00  0.1600E+02  0.1600E+02
     21.552  0.0000E+00  0.0000E+00  0.1600E+02  0.1600E+02
     21.640  0.0000E+00  0.0000E+00  0.1600E+02  0.1600E+02
     21.728  0.0000E+00  0.0000E+00  0.1600E+02  0.1600E+02
     21.815  0.0000E+00  0.0000E+00  0.1600E+02  0.1600E+02
     21.903  0.0000E+00  0.0000E+00  0.1600E+02  0.1600E+02
     21.991  0.0000E+00  0.0000E+00  0.1600E+02  0.1600E+02
