       N       E                     dE             d eps       ncg     rms          rms(c)
DAV:   1     0.756076965166E+02    0.75608E+02   -0.65827E+03  2584   0.983E+02
DAV:   2    -0.106601239838E+02   -0.86268E+02   -0.79595E+02  2560   0.209E+02
DAV:   3    -0.127029857190E+02   -0.20429E+01   -0.20122E+01  3136   0.448E+01
DAV:   4    -0.127358074291E+02   -0.32822E-01   -0.32813E-01  3552   0.458E+00
DAV:   5    -0.127360787460E+02   -0.27132E-03   -0.27131E-03  3128   0.393E-01    0.126E+01
DAV:   6    -0.125113429782E+02    0.22474E+00   -0.22938E+01  2920   0.770E+01    0.132E+01
DAV:   7    -0.110302492858E+02    0.14811E+01   -0.48361E+00  3024   0.343E+01    0.334E+00
DAV:   8    -0.111455645348E+02   -0.11532E+00   -0.16679E-01  3232   0.383E+00    0.171E+00
DAV:   9    -0.111671879588E+02   -0.21623E-01   -0.34866E-02  3088   0.222E+00    0.938E-01
DAV:  10    -0.111650306828E+02    0.21573E-02   -0.73615E-03  3104   0.986E-01    0.460E-01
DAV:  11    -0.111652453789E+02   -0.21470E-03   -0.80530E-03  3152   0.714E-01    0.223E-01
DAV:  12    -0.111649935599E+02    0.25182E-03   -0.66627E-04  3016   0.425E-01    0.708E-02
DAV:  13    -0.111649566355E+02    0.36924E-04   -0.20054E-04  3008   0.120E-01    0.342E-02
DAV:  14    -0.111649895628E+02   -0.32927E-04   -0.37525E-05  3112   0.664E-02    0.290E-02
DAV:  15    -0.111649921551E+02   -0.25923E-05   -0.21439E-05  3008   0.574E-02    0.101E-02
DAV:  16    -0.111649942947E+02   -0.21396E-05   -0.25689E-06  2360   0.172E-02    0.535E-03
DAV:  17    -0.111649944502E+02   -0.15548E-06   -0.89067E-07  2136   0.124E-02
   1 F= -.11164994E+02 E0= -.11160787E+02  d E =-.841584E-02  mag=     4.1722
