 vasp.6.3.2 27Jun22 (build Aug 12 2022 00:53:59) complex                        
  
 executed on               tv2STD date 2024.11.30  15:35:42
 running   24 mpi-ranks, with    1 threads/rank
 distrk:  each k-point on   24 cores,    1 groups
 distr:  one band on NCORE=   6 cores,    4 groups


--------------------------------------------------------------------------------------------------------


 INCAR:
   SYSTEM = Co-hcc
   NWRITE = 2    write-flag
   ISTART = 0    job   : 0-new, 1-cont, 2-samecut
   ICHARG = 2    charge: 0-wave, 1-file, 2-atom, >10-const
   INIWAV = 1    electr: 0-lowe 1-rand  2-diag
   ENCUT = 400     energy cutoff in eV
   PREC = Accurate      normal | accurate
   ADDGRID = .FALSE.  (use fine grid)
   NELM = 100     number of ELM steps
   EDIFF = 1E-06    energy stopping-criterion for ELM
   LREAL = .F.      real-space projection (.FALSE., .TRUE., On, Auto)
   ALGO = Normal     Normal, Fast, Very_Fast
   LWAVE = .FALSE.
   LCHARG = .FALSE.
   NSW = 0       max number of geometry steps
   IBRION = -1     ionic relax: 0-MD, 1-quasi-Newton, 2-CG, 3-Damped MD
   EDIFFG = -0.02  force (eV/A) stopping-criterion for geometry steps
   ISIF = 2     (1:force\=y stress\=trace only ions\=y shape\=n volume\=n)
   ISYM = 1     (1-use symmetry, 0-no symmetry)
   ISMEAR = 0     (-1-Fermi, 1-Methfessel/Paxton)
   SIGMA = 0.05   broadening in eV
   NPAR = 4
   ISPIN = 2
   MAGMOM = 2*3

 POTCAR:    PAW_PBE Co 02Aug2007                  
 POTCAR:    PAW_PBE Co 02Aug2007                  
   SHA256 =  0e690c60710354995174544f52f9f2c30879afabeffe3b3fbd4001cb294e56d4 Co/POTCAR             
   COPYR  = (c) Copyright 02Aug2007 Georg Kresse                                                    
   COPYR  = This file is part of the software VASP. Any use, copying, and all other rights are regul
   COPYR  = If you do not have a valid VASP license, you may not use, copy or distribute this file. 
   VRHFIN =Co: d8 s1                                                                                
   LEXCH  = PE                                                                                      
   EATOM  =   813.3670 eV,   59.7808 Ry                                                             
                                                                                                    
   TITEL  = PAW_PBE Co 02Aug2007                                                                    
   LULTRA =        F    use ultrasoft PP ?                                                          
   IUNSCR =        1    unscreen: 0-lin 1-nonlin 2-no                                               
   RPACOR =    2.000    partial core radius                                                         
   POMASS =   58.933; ZVAL   =    9.000    mass and valenz                                          
   RCORE  =    2.300    outmost cutoff radius                                                       
   RWIGS  =    2.460; RWIGS  =    1.302    wigner-seitz radius (au A)                               
   ENMAX  =  267.968; ENMIN  =  200.976 eV                                                          
   RCLOC  =    1.203    cutoff for local pot                                                        
   LCOR   =        T    correct aug charges                                                         
   LPAW   =        T    paw PP                                                                      
   EAUG   =  477.818                                                                                
   DEXC   =    0.000                                                                                
   RMAX   =    2.360    core radius for proj-oper                                                   
   RAUG   =    1.300    factor for augmentation sphere                                              
   RDEP   =    2.393    radius for radial grids                                                     
   RDEPT  =    1.864    core radius for aug-charge                                                  
                                                                                                    
   Atomic configuration                                                                             
    9 entries                                                                                       
     n  l   j            E        occ.                                                              
     1  0  0.50     -7587.6674   2.0000                                                             
     2  0  0.50      -893.6084   2.0000                                                             
     2  1  1.50      -764.5805   6.0000                                                             
     3  0  0.50       -97.5973   2.0000                                                             
     3  1  1.50       -60.9648   6.0000                                                             
     3  2  2.50        -4.2382   8.0000                                                             
     4  0  0.50        -4.3746   1.0000                                                             
     4  1  1.50        -4.0817   0.0000                                                             
     4  3  2.50        -1.3606   0.0000                                                             
   Description                                                                                      
     l       E           TYP  RCUT    TYP  RCUT                                                     
     2     -4.2382362     23  2.300                                                                 
     2     -5.5988188     23  2.300                                                                 
     0     -4.3745797     23  2.300                                                                 
     0      5.7660125     23  2.300                                                                 
     1     -2.7211652     23  2.300                                                                 
     1     16.9860234     23  2.300                                                                 
  local pseudopotential read in
  partial core-charges read in
  partial kinetic energy density read in
  atomic valenz-charges read in
  non local Contribution for L=           2  read in
    real space projection operators read in
  non local Contribution for L=           2  read in
    real space projection operators read in
  non local Contribution for L=           0  read in
    real space projection operators read in
  non local Contribution for L=           0  read in
    real space projection operators read in
  non local Contribution for L=           1  read in
    real space projection operators read in
  non local Contribution for L=           1  read in
    real space projection operators read in
    PAW grid and wavefunctions read in
 
   number of l-projection  operators is LMAX  =           6
   number of lm-projection operators is LMMAX =          18
 
  PAW_PBE Co 02Aug2007                  :
 energy of atom  1       EATOM= -813.3670
 kinetic energy error for atom=    0.0093 (will be added to EATOM!!)
 
 
 POSCAR: Co
  positions in cartesian coordinates
  No initial velocities read in
 exchange correlation table for  LEXCH =        8
   RHO(1)=    0.500       N(1)  =     2000
   RHO(2)=  100.500       N(2)  =     4000
 


--------------------------------------------------------------------------------------------------------


 ion  position               nearest neighbor table
   1  0.000  0.000  0.000-
   2  0.333  0.667  0.500-
 
  LATTYP: Found a hexagonal cell.
 ALAT       =     2.4700000000
 C/A-ratio  =     3.2753036437
  
  Lattice vectors:
  
 A1 = (   2.4700000000,   0.0000000000,   0.0000000000)
 A2 = (  -1.2350000000,   2.1390827473,   0.0000000000)
 A3 = (   0.0000000000,   0.0000000000,   8.0900000000)


Analysis of symmetry for initial positions (statically):
=====================================================================
 Subroutine PRICEL returns:
 Original cell was already a primitive cell.
 

 Routine SETGRP: Setting up the symmetry group for a 
 hexagonal supercell.


 Subroutine GETGRP returns: Found 24 space group operations
 (whereof 12 operations were pure point group operations)
 out of a pool of 24 trial point group operations.


The static configuration has the point symmetry D_3h.
 The point group associated with its full space group is D_6h.


Analysis of symmetry for dynamics (positions and initial velocities):
=====================================================================
 Subroutine PRICEL returns:
 Original cell was already a primitive cell.
 

 Routine SETGRP: Setting up the symmetry group for a 
 hexagonal supercell.


 Subroutine GETGRP returns: Found 24 space group operations
 (whereof 12 operations were pure point group operations)
 out of a pool of 24 trial point group operations.


The dynamic configuration has the point symmetry D_3h.
 The point group associated with its full space group is D_6h.


Analysis of structural, dynamic, and magnetic symmetry:
=====================================================================
 Subroutine PRICEL returns:
 Original cell was already a primitive cell.
 

 Routine SETGRP: Setting up the symmetry group for a 
 hexagonal supercell.


 Subroutine GETGRP returns: Found 24 space group operations
 (whereof 12 operations were pure point group operations)
 out of a pool of 24 trial point group operations.


The overall configuration has the point symmetry D_3h.
 The point group associated with its full space group is D_6h.


 Subroutine INISYM returns: Found 24 space group operations
 (whereof 12 operations are pure point group operations),
 and found     1 'primitive' translations


----------------------------------------------------------------------------------------

                                     Primitive cell                                     

  volume of cell :      42.7438

  direct lattice vectors                    reciprocal lattice vectors
     2.470000000  0.000000000  0.000000000     0.404858300  0.233745048  0.000000000
    -1.235000000  2.139082747  0.000000000     0.000000000  0.467490097  0.000000000
     0.000000000  0.000000000  8.090000000     0.000000000  0.000000000  0.123609394

  length of vectors
     2.470000000  2.470000000  8.090000000     0.467490097  0.467490097  0.123609394

  position of ions in fractional coordinates (direct lattice)
     0.000000000  0.000000000  0.000000000
     0.333333333  0.666666667  0.500000000

  ion indices of the primitive-cell ions
   primitive index   ion index
                 1           1
                 2           2

----------------------------------------------------------------------------------------

 
 
 KPOINTS: Automatic mesh                          

Automatic generation of k-mesh.
 Grid dimensions read from file:
 generate k-points for:    8    8    6

 Generating k-lattice:

  Cartesian coordinates                     Fractional coordinates (reciprocal lattice)
     0.050607287  0.029218131  0.000000000     0.125000000  0.000000000  0.000000000
     0.000000000  0.058436262  0.000000000     0.000000000  0.125000000  0.000000000
     0.000000000  0.000000000  0.020601566     0.000000000  0.000000000  0.166666667

  Length of vectors
     0.058436262  0.058436262  0.020601566

  Shift w.r.t. Gamma in fractional coordinates (k-lattice)
     0.000000000  0.000000000  0.000000000

 
 Subroutine IBZKPT returns following result:
 ===========================================
 
 Found     40 irreducible k-points:
 
 Following reciprocal coordinates:
            Coordinates               Weight
  0.000000  0.000000  0.000000      1.000000
  0.125000 -0.000000  0.000000      6.000000
  0.250000 -0.000000  0.000000      6.000000
  0.375000 -0.000000  0.000000      6.000000
  0.500000 -0.000000  0.000000      3.000000
  0.125000  0.125000  0.000000      6.000000
  0.250000  0.125000  0.000000     12.000000
  0.375000  0.125000  0.000000     12.000000
  0.250000  0.250000  0.000000      6.000000
  0.375000  0.250000  0.000000      6.000000
  0.000000  0.000000  0.166667      2.000000
  0.125000 -0.000000  0.166667     12.000000
  0.250000 -0.000000  0.166667     12.000000
  0.375000 -0.000000  0.166667     12.000000
  0.500000 -0.000000  0.166667      6.000000
  0.125000  0.125000  0.166667     12.000000
  0.250000  0.125000  0.166667     24.000000
  0.375000  0.125000  0.166667     24.000000
  0.250000  0.250000  0.166667     12.000000
  0.375000  0.250000  0.166667     12.000000
  0.000000  0.000000  0.333333      2.000000
  0.125000 -0.000000  0.333333     12.000000
  0.250000 -0.000000  0.333333     12.000000
  0.375000 -0.000000  0.333333     12.000000
  0.500000 -0.000000  0.333333      6.000000
  0.125000  0.125000  0.333333     12.000000
  0.250000  0.125000  0.333333     24.000000
  0.375000  0.125000  0.333333     24.000000
  0.250000  0.250000  0.333333     12.000000
  0.375000  0.250000  0.333333     12.000000
  0.000000  0.000000  0.500000      1.000000
  0.125000 -0.000000  0.500000      6.000000
  0.250000 -0.000000  0.500000      6.000000
  0.375000 -0.000000  0.500000      6.000000
  0.500000 -0.000000  0.500000      3.000000
  0.125000  0.125000  0.500000      6.000000
  0.250000  0.125000  0.500000     12.000000
  0.375000  0.125000  0.500000     12.000000
  0.250000  0.250000  0.500000      6.000000
  0.375000  0.250000  0.500000      6.000000
 
 Following cartesian coordinates:
            Coordinates               Weight
  0.000000  0.000000  0.000000      1.000000
  0.050607  0.029218  0.000000      6.000000
  0.101215  0.058436  0.000000      6.000000
  0.151822  0.087654  0.000000      6.000000
  0.202429  0.116873  0.000000      3.000000
  0.050607  0.087654  0.000000      6.000000
  0.101215  0.116873  0.000000     12.000000
  0.151822  0.146091  0.000000     12.000000
  0.101215  0.175309  0.000000      6.000000
  0.151822  0.204527  0.000000      6.000000
  0.000000  0.000000  0.020602      2.000000
  0.050607  0.029218  0.020602     12.000000
  0.101215  0.058436  0.020602     12.000000
  0.151822  0.087654  0.020602     12.000000
  0.202429  0.116873  0.020602      6.000000
  0.050607  0.087654  0.020602     12.000000
  0.101215  0.116873  0.020602     24.000000
  0.151822  0.146091  0.020602     24.000000
  0.101215  0.175309  0.020602     12.000000
  0.151822  0.204527  0.020602     12.000000
  0.000000  0.000000  0.041203      2.000000
  0.050607  0.029218  0.041203     12.000000
  0.101215  0.058436  0.041203     12.000000
  0.151822  0.087654  0.041203     12.000000
  0.202429  0.116873  0.041203      6.000000
  0.050607  0.087654  0.041203     12.000000
  0.101215  0.116873  0.041203     24.000000
  0.151822  0.146091  0.041203     24.000000
  0.101215  0.175309  0.041203     12.000000
  0.151822  0.204527  0.041203     12.000000
  0.000000  0.000000  0.061805      1.000000
  0.050607  0.029218  0.061805      6.000000
  0.101215  0.058436  0.061805      6.000000
  0.151822  0.087654  0.061805      6.000000
  0.202429  0.116873  0.061805      3.000000
  0.050607  0.087654  0.061805      6.000000
  0.101215  0.116873  0.061805     12.000000
  0.151822  0.146091  0.061805     12.000000
  0.101215  0.175309  0.061805      6.000000
  0.151822  0.204527  0.061805      6.000000
 


--------------------------------------------------------------------------------------------------------




 Dimension of arrays:
   k-points           NKPTS =     40   k-points in BZ     NKDIM =     40   number of bands    NBANDS=     16
   number of dos      NEDOS =    301   number of ions     NIONS =      2
   non local maximal  LDIM  =      6   non local SUM 2l+1 LMDIM =     18
   total plane-waves  NPLWV =  13824
   max r-space proj   IRMAX =      1   max aug-charges    IRDMAX=  12953
   dimension x,y,z NGX =    16 NGY =   16 NGZ =   54
   dimension x,y,z NGXF=    32 NGYF=   32 NGZF=  108
   support grid    NGXF=    32 NGYF=   32 NGZF=  108
   ions per type =               2
   NGX,Y,Z   is equivalent  to a cutoff of  10.77, 10.77, 11.10 a.u.
   NGXF,Y,Z  is equivalent  to a cutoff of  21.54, 21.54, 22.19 a.u.

 SYSTEM =  Co-hcc                                  
 POSCAR =  Co                                      

 Startparameter for this run:
   NWRITE =      2    write-flag & timer
   PREC   = accura    normal or accurate (medium, high low for compatibility)
   ISTART =      0    job   : 0-new  1-cont  2-samecut
   ICHARG =      2    charge: 1-file 2-atom 10-const
   ISPIN  =      2    spin polarized calculation?
   LNONCOLLINEAR =      F non collinear calculations
   LSORBIT =      F    spin-orbit coupling
   INIWAV =      1    electr: 0-lowe 1-rand  2-diag
   LASPH  =      F    aspherical Exc in radial PAW
 Electronic Relaxation 1
   ENCUT  =  400.0 eV  29.40 Ry    5.42 a.u.   4.03  4.03 13.19*2*pi/ulx,y,z
   ENINI  =  400.0     initial cutoff
   ENAUG  =  477.8 eV  augmentation charge cutoff
   NELM   =    100;   NELMIN=  2; NELMDL= -5     # of ELM steps 
   EDIFF  = 0.1E-05   stopping-criterion for ELM
   LREAL  =      F    real-space projection
   NLSPLINE    = F    spline interpolate recip. space projectors
   LCOMPAT=      F    compatible to vasp.4.4
   GGA_COMPAT  = T    GGA compatible to vasp.4.4-vasp.4.6
   LMAXPAW     = -100 max onsite density
   LMAXMIX     =    2 max onsite mixed and CHGCAR
   VOSKOWN=      0    Vosko Wilk Nusair interpolation
   ROPT   =    0.00000
 Ionic relaxation
   EDIFFG = -.2E-01   stopping-criterion for IOM
   NSW    =      0    number of steps for IOM
   NBLOCK =      1;   KBLOCK =      1    inner block; outer block 
   IBRION =     -1    ionic relax: 0-MD 1-quasi-New 2-CG
   NFREE  =      0    steps in history (QN), initial steepest desc. (CG)
   ISIF   =      2    stress and relaxation
   IWAVPR =     10    prediction:  0-non 1-charg 2-wave 3-comb
   ISYM   =      1    0-nonsym 1-usesym 2-fastsym
   LCORR  =      T    Harris-Foulkes like correction to forces

   POTIM  = 0.5000    time-step for ionic-motion
   TEIN   =    0.0    initial temperature
   TEBEG  =    0.0;   TEEND  =   0.0 temperature during run
   SMASS  =  -3.00    Nose mass-parameter (am)
   estimated Nose-frequenzy (Omega)   =  0.10E-29 period in steps = 0.13E+47 mass=  -0.139E-27a.u.
   SCALEE = 1.0000    scale energy and forces
   NPACO  =    256;   APACO  = 10.0  distance and # of slots for P.C.
   PSTRESS=    0.0 pullay stress

  Mass of Ions in am
   POMASS =  58.93
  Ionic Valenz
   ZVAL   =   9.00
  Atomic Wigner-Seitz radii
   RWIGS  =  -1.00
  virtual crystal weights 
   VCA    =   1.00
   NELECT =      18.0000    total number of electrons
   NUPDOWN=      -1.0000    fix difference up-down

 DOS related values:
   EMIN   =  10.00;   EMAX   =-10.00  energy-range for DOS
   EFERMI =   0.00
   ISMEAR =     0;   SIGMA  =   0.05  broadening in eV -4-tet -1-fermi 0-gaus

 Electronic relaxation 2 (details)
   IALGO  =     38    algorithm
   LDIAG  =      T    sub-space diagonalisation (order eigenvalues)
   LSUBROT=      F    optimize rotation matrix (better conditioning)
   TURBO    =      0    0=normal 1=particle mesh
   IRESTART =      0    0=no restart 2=restart with 2 vectors
   NREBOOT  =      0    no. of reboots
   NMIN     =      0    reboot dimension
   EREF     =   0.00    reference energy to select bands
   IMIX   =      4    mixing-type and parameters
     AMIX     =   0.40;   BMIX     =  1.00
     AMIX_MAG =   1.60;   BMIX_MAG =  1.00
     AMIN     =   0.10
     WC   =   100.;   INIMIX=   1;  MIXPRE=   1;  MAXMIX= -45

 Intra band minimization:
   WEIMIN = 0.0000     energy-eigenvalue tresh-hold
   EBREAK =  0.16E-07  absolut break condition
   DEPER  =   0.30     relativ break condition  

   TIME   =   0.40     timestep for ELM

  volume/ion in A,a.u.               =      21.37       144.22
  Fermi-wavevector in a.u.,A,eV,Ry     =   1.227085  2.318854 20.486804  1.505738
  Thomas-Fermi vector in A             =   2.362062
 
 Write flags
   LWAVE        =      F    write WAVECAR
   LDOWNSAMPLE  =      F    k-point downsampling of WAVECAR
   LCHARG       =      F    write CHGCAR
   LVTOT        =      F    write LOCPOT, total local potential
   LVHAR        =      F    write LOCPOT, Hartree potential only
   LELF         =      F    write electronic localiz. function (ELF)
   LORBIT       =      0    0 simple, 1 ext, 2 COOP (PROOUT), +10 PAW based schemes


 Dipole corrections
   LMONO  =      F    monopole corrections only (constant potential shift)
   LDIPOL =      F    correct potential (dipole corrections)
   IDIPOL =      0    1-x, 2-y, 3-z, 4-all directions 
   EPSILON=  1.0000000 bulk dielectric constant

 Exchange correlation treatment:
   GGA     =    --    GGA type
   LEXCH   =     8    internal setting for exchange type
   LIBXC   =     F    Libxc                    
   VOSKOWN =     0    Vosko Wilk Nusair interpolation
   LHFCALC =     F    Hartree Fock is set to
   LHFONE  =     F    Hartree Fock one center treatment
   AEXX    =    0.0000 exact exchange contribution

 Linear response parameters
   LEPSILON=     F    determine dielectric tensor
   LRPA    =     F    only Hartree local field effects (RPA)
   LNABLA  =     F    use nabla operator in PAW spheres
   LVEL    =     F    velocity operator in full k-point grid
   CSHIFT  =0.1000    complex shift for real part using Kramers Kronig
   OMEGAMAX=  -1.0    maximum frequency
   DEG_THRESHOLD= 0.2000000E-02 threshold for treating states as degnerate
   RTIME   =   -0.100 relaxation time in fs
  (WPLASMAI=    0.000 imaginary part of plasma frequency in eV, 0.658/RTIME)
   DFIELD  = 0.0000000 0.0000000 0.0000000 field for delta impulse in time
 
  Optional k-point grid parameters
   LKPOINTS_OPT  =     F    use optional k-point grid
   KPOINTS_OPT_MODE=     1    mode for optional k-point grid
 
 Orbital magnetization related:
   ORBITALMAG=     F  switch on orbital magnetization
   LCHIMAG   =     F  perturbation theory with respect to B field
   DQ        =  0.001000  dq finite difference perturbation B field
   LLRAUG    =     F  two centre corrections for induced B field



--------------------------------------------------------------------------------------------------------


 Static calculation
 charge density and potential will be updated during run
 spin polarized calculation
 Variant of blocked Davidson
 Davidson routine will perform the subspace rotation
 perform sub-space diagonalisation
    after iterative eigenvector-optimisation
 modified Broyden-mixing scheme, WC =      100.0
 initial mixing is a Kerker type mixing with AMIX =  0.4000 and BMIX =      1.0000
 Hartree-type preconditioning will be used
 using additional bands            7
 reciprocal scheme for non local part
 use partial core corrections
 calculate Harris-corrections to forces 
   (improved forces if not selfconsistent)
 use gradient corrections 
 use of overlap-Matrix (Vanderbilt PP)
 Gauss-broadening in eV      SIGMA  =   0.05


--------------------------------------------------------------------------------------------------------


  energy-cutoff  :      400.00
  volume of cell :       42.74
      direct lattice vectors                 reciprocal lattice vectors
     2.470000000  0.000000000  0.000000000     0.404858300  0.233745048  0.000000000
    -1.235000000  2.139082747  0.000000000     0.000000000  0.467490097  0.000000000
     0.000000000  0.000000000  8.090000000     0.000000000  0.000000000  0.123609394

  length of vectors
     2.470000000  2.470000000  8.090000000     0.467490097  0.467490097  0.123609394


 
 k-points in units of 2pi/SCALE and weight: Automatic mesh                          
   0.00000000  0.00000000  0.00000000       0.003
   0.05060729  0.02921813  0.00000000       0.016
   0.10121457  0.05843626  0.00000000       0.016
   0.15182186  0.08765439  0.00000000       0.016
   0.20242915  0.11687252  0.00000000       0.008
   0.05060729  0.08765439  0.00000000       0.016
   0.10121457  0.11687252  0.00000000       0.031
   0.15182186  0.14609066  0.00000000       0.031
   0.10121457  0.17530879  0.00000000       0.016
   0.15182186  0.20452692  0.00000000       0.016
   0.00000000  0.00000000  0.02060157       0.005
   0.05060729  0.02921813  0.02060157       0.031
   0.10121457  0.05843626  0.02060157       0.031
   0.15182186  0.08765439  0.02060157       0.031
   0.20242915  0.11687252  0.02060157       0.016
   0.05060729  0.08765439  0.02060157       0.031
   0.10121457  0.11687252  0.02060157       0.062
   0.15182186  0.14609066  0.02060157       0.062
   0.10121457  0.17530879  0.02060157       0.031
   0.15182186  0.20452692  0.02060157       0.031
   0.00000000  0.00000000  0.04120313       0.005
   0.05060729  0.02921813  0.04120313       0.031
   0.10121457  0.05843626  0.04120313       0.031
   0.15182186  0.08765439  0.04120313       0.031
   0.20242915  0.11687252  0.04120313       0.016
   0.05060729  0.08765439  0.04120313       0.031
   0.10121457  0.11687252  0.04120313       0.062
   0.15182186  0.14609066  0.04120313       0.062
   0.10121457  0.17530879  0.04120313       0.031
   0.15182186  0.20452692  0.04120313       0.031
   0.00000000  0.00000000  0.06180470       0.003
   0.05060729  0.02921813  0.06180470       0.016
   0.10121457  0.05843626  0.06180470       0.016
   0.15182186  0.08765439  0.06180470       0.016
   0.20242915  0.11687252  0.06180470       0.008
   0.05060729  0.08765439  0.06180470       0.016
   0.10121457  0.11687252  0.06180470       0.031
   0.15182186  0.14609066  0.06180470       0.031
   0.10121457  0.17530879  0.06180470       0.016
   0.15182186  0.20452692  0.06180470       0.016
 
 k-points in reciprocal lattice and weights: Automatic mesh                          
   0.00000000  0.00000000  0.00000000       0.003
   0.12500000 -0.00000000  0.00000000       0.016
   0.25000000 -0.00000000  0.00000000       0.016
   0.37500000 -0.00000000  0.00000000       0.016
   0.50000000 -0.00000000  0.00000000       0.008
   0.12500000  0.12500000  0.00000000       0.016
   0.25000000  0.12500000  0.00000000       0.031
   0.37500000  0.12500000  0.00000000       0.031
   0.25000000  0.25000000  0.00000000       0.016
   0.37500000  0.25000000  0.00000000       0.016
   0.00000000  0.00000000  0.16666667       0.005
   0.12500000 -0.00000000  0.16666667       0.031
   0.25000000 -0.00000000  0.16666667       0.031
   0.37500000 -0.00000000  0.16666667       0.031
   0.50000000 -0.00000000  0.16666667       0.016
   0.12500000  0.12500000  0.16666667       0.031
   0.25000000  0.12500000  0.16666667       0.062
   0.37500000  0.12500000  0.16666667       0.062
   0.25000000  0.25000000  0.16666667       0.031
   0.37500000  0.25000000  0.16666667       0.031
   0.00000000  0.00000000  0.33333333       0.005
   0.12500000 -0.00000000  0.33333333       0.031
   0.25000000 -0.00000000  0.33333333       0.031
   0.37500000 -0.00000000  0.33333333       0.031
   0.50000000 -0.00000000  0.33333333       0.016
   0.12500000  0.12500000  0.33333333       0.031
   0.25000000  0.12500000  0.33333333       0.062
   0.37500000  0.12500000  0.33333333       0.062
   0.25000000  0.25000000  0.33333333       0.031
   0.37500000  0.25000000  0.33333333       0.031
   0.00000000  0.00000000  0.50000000       0.003
   0.12500000 -0.00000000  0.50000000       0.016
   0.25000000 -0.00000000  0.50000000       0.016
   0.37500000 -0.00000000  0.50000000       0.016
   0.50000000 -0.00000000  0.50000000       0.008
   0.12500000  0.12500000  0.50000000       0.016
   0.25000000  0.12500000  0.50000000       0.031
   0.37500000  0.12500000  0.50000000       0.031
   0.25000000  0.25000000  0.50000000       0.016
   0.37500000  0.25000000  0.50000000       0.016
 
 position of ions in fractional coordinates (direct lattice) 
   0.00000000  0.00000000  0.00000000
   0.33333333  0.66666667  0.50000000
 
 position of ions in cartesian coordinates  (Angst):
   0.00000000  0.00000000  0.00000000
   0.00000000  1.42605516  4.04500000
 


--------------------------------------------------------------------------------------------------------


 k-point   1 :   0.0000 0.0000 0.0000  plane waves:     741
 k-point   2 :   0.1250-0.0000 0.0000  plane waves:     755
 k-point   3 :   0.2500-0.0000 0.0000  plane waves:     773
 k-point   4 :   0.3750-0.0000 0.0000  plane waves:     777
 k-point   5 :   0.5000-0.0000 0.0000  plane waves:     766
 k-point   6 :   0.1250 0.1250 0.0000  plane waves:     764
 k-point   7 :   0.2500 0.1250 0.0000  plane waves:     781
 k-point   8 :   0.3750 0.1250 0.0000  plane waves:     791
 k-point   9 :   0.2500 0.2500 0.0000  plane waves:     786
 k-point  10 :   0.3750 0.2500 0.0000  plane waves:     776
 k-point  11 :   0.0000 0.0000 0.1667  plane waves:     741
 k-point  12 :   0.1250-0.0000 0.1667  plane waves:     751
 k-point  13 :   0.2500-0.0000 0.1667  plane waves:     773
 k-point  14 :   0.3750-0.0000 0.1667  plane waves:     774
 k-point  15 :   0.5000-0.0000 0.1667  plane waves:     778
 k-point  16 :   0.1250 0.1250 0.1667  plane waves:     772
 k-point  17 :   0.2500 0.1250 0.1667  plane waves:     782
 k-point  18 :   0.3750 0.1250 0.1667  plane waves:     787
 k-point  19 :   0.2500 0.2500 0.1667  plane waves:     783
 k-point  20 :   0.3750 0.2500 0.1667  plane waves:     781
 k-point  21 :   0.0000 0.0000 0.3333  plane waves:     752
 k-point  22 :   0.1250-0.0000 0.3333  plane waves:     753
 k-point  23 :   0.2500-0.0000 0.3333  plane waves:     777
 k-point  24 :   0.3750-0.0000 0.3333  plane waves:     780
 k-point  25 :   0.5000-0.0000 0.3333  plane waves:     768
 k-point  26 :   0.1250 0.1250 0.3333  plane waves:     772
 k-point  27 :   0.2500 0.1250 0.3333  plane waves:     782
 k-point  28 :   0.3750 0.1250 0.3333  plane waves:     779
 k-point  29 :   0.2500 0.2500 0.3333  plane waves:     778
 k-point  30 :   0.3750 0.2500 0.3333  plane waves:     784
 k-point  31 :   0.0000 0.0000 0.5000  plane waves:     770
 k-point  32 :   0.1250-0.0000 0.5000  plane waves:     752
 k-point  33 :   0.2500-0.0000 0.5000  plane waves:     764
 k-point  34 :   0.3750-0.0000 0.5000  plane waves:     784
 k-point  35 :   0.5000-0.0000 0.5000  plane waves:     768
 k-point  36 :   0.1250 0.1250 0.5000  plane waves:     774
 k-point  37 :   0.2500 0.1250 0.5000  plane waves:     786
 k-point  38 :   0.3750 0.1250 0.5000  plane waves:     786
 k-point  39 :   0.2500 0.2500 0.5000  plane waves:     792
 k-point  40 :   0.3750 0.2500 0.5000  plane waves:     780

 maximum and minimum number of plane-waves per node :       139      109

 maximum number of plane-waves:       792
 maximum index in each direction: 
   IXMAX=    4   IYMAX=    4   IZMAX=   13
   IXMIN=   -4   IYMIN=   -4   IZMIN=  -13


 parallel 3D FFT for wavefunctions:
    minimum data exchange during FFTs selected (reduces bandwidth)
 parallel 3D FFT for charge:
    minimum data exchange during FFTs selected (reduces bandwidth)


 total amount of memory used by VASP MPI-rank0    32664. kBytes
=======================================================================

   base      :      30000. kBytes
   nonl-proj :        810. kBytes
   fftplans  :        291. kBytes
   grid      :        713. kBytes
   one-center:         31. kBytes
   wavefun   :        819. kBytes
 
     INWAV:  cpu time      0.0000: real time      0.0001
 Broyden mixing: mesh for mixing (old mesh)
   NGX =  9   NGY =  9   NGZ = 27
  (NGX  = 32   NGY  = 32   NGZ  =108)
  gives a total of   2187 points

 initial charge density was supplied:
 charge density of overlapping atoms calculated
 number of electron      18.0000000 magnetization       6.0000000
 keeping initial charge density in first step


--------------------------------------------------------------------------------------------------------


 Maximum index for augmentation-charges         1022 (set IRDMAX)


--------------------------------------------------------------------------------------------------------


 First call to EWALD:  gamma=   0.507
 Maximum number of real-space cells 4x 4x 1
 Maximum number of reciprocal cells 2x 2x 6

    FEWALD:  cpu time      0.0015: real time      0.0015


--------------------------------------- Iteration      1(   1)  ---------------------------------------


    POTLOK:  cpu time      0.0091: real time      0.0093
    SETDIJ:  cpu time      0.0054: real time      0.0054
     EDDAV:  cpu time      0.2657: real time      0.2673
       DOS:  cpu time      0.0017: real time      0.0017
    --------------------------------------------
      LOOP:  cpu time      0.2818: real time      0.2836

 eigenvalue-minimisations  :  2584
 total energy-change (2. order) : 0.7560770E+02  (-0.6582733E+03)
 number of electron      18.0000000 magnetization       6.0000000
 augmentation part       18.0000000 magnetization       6.0000000

 Free energy of the ion-electron system (eV)
  ---------------------------------------------------
  alpha Z        PSCENC =        39.63868225
  Ewald energy   TEWEN  =     -1054.56880693
  -Hartree energ DENC   =      -595.60964206
  -exchange      EXHF   =         0.00000000
  -V(xc)+E(xc)   XCENC  =        33.36921587
  PAW double counting   =      1439.98163886    -1545.88690193
  entropy T*S    EENTRO =        -0.00425507
  eigenvalues    EBANDS =       131.97229732
  atomic energy  EATOM  =      1626.71546820
  Solvation  Ediel_sol  =         0.00000000
  ---------------------------------------------------
  free energy    TOTEN  =        75.60769652 eV

  energy without entropy =       75.61195159  energy(sigma->0) =       75.60982405


--------------------------------------------------------------------------------------------------------




--------------------------------------- Iteration      1(   2)  ---------------------------------------


     EDDAV:  cpu time      0.2621: real time      0.2639
       DOS:  cpu time      0.0009: real time      0.0009
    --------------------------------------------
      LOOP:  cpu time      0.2630: real time      0.2648

 eigenvalue-minimisations  :  2560
 total energy-change (2. order) :-0.8626782E+02  (-0.7959457E+02)
 number of electron      18.0000000 magnetization       6.0000000
 augmentation part       18.0000000 magnetization       6.0000000

 Free energy of the ion-electron system (eV)
  ---------------------------------------------------
  alpha Z        PSCENC =        39.63868225
  Ewald energy   TEWEN  =     -1054.56880693
  -Hartree energ DENC   =      -595.60964206
  -exchange      EXHF   =         0.00000000
  -V(xc)+E(xc)   XCENC  =        33.36921587
  PAW double counting   =      1439.98163886    -1545.88690193
  entropy T*S    EENTRO =        -0.00378637
  eigenvalues    EBANDS =        45.70400813
  atomic energy  EATOM  =      1626.71546820
  Solvation  Ediel_sol  =         0.00000000
  ---------------------------------------------------
  free energy    TOTEN  =       -10.66012398 eV

  energy without entropy =      -10.65633761  energy(sigma->0) =      -10.65823080


--------------------------------------------------------------------------------------------------------




--------------------------------------- Iteration      1(   3)  ---------------------------------------


     EDDAV:  cpu time      0.3001: real time      0.3018
       DOS:  cpu time      0.0008: real time      0.0008
    --------------------------------------------
      LOOP:  cpu time      0.3009: real time      0.3027

 eigenvalue-minimisations  :  3136
 total energy-change (2. order) :-0.2042862E+01  (-0.2012223E+01)
 number of electron      18.0000000 magnetization       6.0000000
 augmentation part       18.0000000 magnetization       6.0000000

 Free energy of the ion-electron system (eV)
  ---------------------------------------------------
  alpha Z        PSCENC =        39.63868225
  Ewald energy   TEWEN  =     -1054.56880693
  -Hartree energ DENC   =      -595.60964206
  -exchange      EXHF   =         0.00000000
  -V(xc)+E(xc)   XCENC  =        33.36921587
  PAW double counting   =      1439.98163886    -1545.88690193
  entropy T*S    EENTRO =        -0.00370203
  eigenvalues    EBANDS =        43.66106205
  atomic energy  EATOM  =      1626.71546820
  Solvation  Ediel_sol  =         0.00000000
  ---------------------------------------------------
  free energy    TOTEN  =       -12.70298572 eV

  energy without entropy =      -12.69928369  energy(sigma->0) =      -12.70113470


--------------------------------------------------------------------------------------------------------




--------------------------------------- Iteration      1(   4)  ---------------------------------------


     EDDAV:  cpu time      0.3296: real time      0.3314
       DOS:  cpu time      0.0009: real time      0.0009
    --------------------------------------------
      LOOP:  cpu time      0.3305: real time      0.3324

 eigenvalue-minimisations  :  3552
 total energy-change (2. order) :-0.3282171E-01  (-0.3281284E-01)
 number of electron      18.0000000 magnetization       6.0000000
 augmentation part       18.0000000 magnetization       6.0000000

 Free energy of the ion-electron system (eV)
  ---------------------------------------------------
  alpha Z        PSCENC =        39.63868225
  Ewald energy   TEWEN  =     -1054.56880693
  -Hartree energ DENC   =      -595.60964206
  -exchange      EXHF   =         0.00000000
  -V(xc)+E(xc)   XCENC  =        33.36921587
  PAW double counting   =      1439.98163886    -1545.88690193
  entropy T*S    EENTRO =        -0.00370449
  eigenvalues    EBANDS =        43.62824280
  atomic energy  EATOM  =      1626.71546820
  Solvation  Ediel_sol  =         0.00000000
  ---------------------------------------------------
  free energy    TOTEN  =       -12.73580743 eV

  energy without entropy =      -12.73210294  energy(sigma->0) =      -12.73395518


--------------------------------------------------------------------------------------------------------




--------------------------------------- Iteration      1(   5)  ---------------------------------------


     EDDAV:  cpu time      0.3113: real time      0.3131
       DOS:  cpu time      0.0010: real time      0.0010
    CHARGE:  cpu time      0.0270: real time      0.0271
    MIXING:  cpu time      0.0003: real time      0.0003
    --------------------------------------------
      LOOP:  cpu time      0.3395: real time      0.3415

 eigenvalue-minimisations  :  3128
 total energy-change (2. order) :-0.2713169E-03  (-0.2713145E-03)
 number of electron      17.9999992 magnetization       5.1683209
 augmentation part        9.0778719 magnetization       4.0178887

 Broyden mixing:
  rms(total) = 0.12631E+01    rms(broyden)= 0.12631E+01
  rms(prec ) = 0.17083E+01
  weight for this iteration     100.00

 Free energy of the ion-electron system (eV)
  ---------------------------------------------------
  alpha Z        PSCENC =        39.63868225
  Ewald energy   TEWEN  =     -1054.56880693
  -Hartree energ DENC   =      -595.60964206
  -exchange      EXHF   =         0.00000000
  -V(xc)+E(xc)   XCENC  =        33.36921587
  PAW double counting   =      1439.98163886    -1545.88690193
  entropy T*S    EENTRO =        -0.00370535
  eigenvalues    EBANDS =        43.62797234
  atomic energy  EATOM  =      1626.71546820
  Solvation  Ediel_sol  =         0.00000000
  ---------------------------------------------------
  free energy    TOTEN  =       -12.73607875 eV

  energy without entropy =      -12.73237339  energy(sigma->0) =      -12.73422607


--------------------------------------------------------------------------------------------------------




--------------------------------------- Iteration      1(   6)  ---------------------------------------


    POTLOK:  cpu time      0.0077: real time      0.0080
    SETDIJ:  cpu time      0.0052: real time      0.0052
     EDDAV:  cpu time      0.2817: real time      0.2832
       DOS:  cpu time      0.0010: real time      0.0010
    CHARGE:  cpu time      0.0261: real time      0.0262
    MIXING:  cpu time      0.0004: real time      0.0004
    --------------------------------------------
      LOOP:  cpu time      0.3220: real time      0.3238

 eigenvalue-minimisations  :  2920
 total energy-change (2. order) : 0.2247358E+00  (-0.2293814E+01)
 number of electron      17.9999990 magnetization       4.6808607
 augmentation part       11.3845868 magnetization       3.9544314

 Broyden mixing:
  rms(total) = 0.13241E+01    rms(broyden)= 0.13240E+01
  rms(prec ) = 0.15872E+01
  weight for this iteration     100.00

 eigenvalues of (default mixing * dielectric matrix)
  average eigenvalue GAMMA=   0.4103
  0.4103

 Free energy of the ion-electron system (eV)
  ---------------------------------------------------
  alpha Z        PSCENC =        39.63868225
  Ewald energy   TEWEN  =     -1054.56880693
  -Hartree energ DENC   =      -550.12510450
  -exchange      EXHF   =         0.00000000
  -V(xc)+E(xc)   XCENC  =        31.02255235
  PAW double counting   =      1471.95693569    -1566.33677202
  entropy T*S    EENTRO =        -0.00734630
  eigenvalues    EBANDS =       -10.80695172
  atomic energy  EATOM  =      1626.71546820
  Solvation  Ediel_sol  =         0.00000000
  ---------------------------------------------------
  free energy    TOTEN  =       -12.51134298 eV

  energy without entropy =      -12.50399668  energy(sigma->0) =      -12.50766983


--------------------------------------------------------------------------------------------------------




--------------------------------------- Iteration      1(   7)  ---------------------------------------


    POTLOK:  cpu time      0.0074: real time      0.0076
    SETDIJ:  cpu time      0.0048: real time      0.0048
     EDDAV:  cpu time      0.2880: real time      0.2895
       DOS:  cpu time      0.0010: real time      0.0010
    CHARGE:  cpu time      0.0257: real time      0.0258
    MIXING:  cpu time      0.0004: real time      0.0004
    --------------------------------------------
      LOOP:  cpu time      0.3272: real time      0.3290

 eigenvalue-minimisations  :  3024
 total energy-change (2. order) : 0.1481094E+01  (-0.4836121E+00)
 number of electron      17.9999991 magnetization       4.4816703
 augmentation part       10.3108035 magnetization       3.4268235

 Broyden mixing:
  rms(total) = 0.33415E+00    rms(broyden)= 0.33409E+00
  rms(prec ) = 0.35483E+00
  weight for this iteration     100.00

 eigenvalues of (default mixing * dielectric matrix)
  average eigenvalue GAMMA=   0.6208
  0.7339  0.5077

 Free energy of the ion-electron system (eV)
  ---------------------------------------------------
  alpha Z        PSCENC =        39.63868225
  Ewald energy   TEWEN  =     -1054.56880693
  -Hartree energ DENC   =      -569.45806419
  -exchange      EXHF   =         0.00000000
  -V(xc)+E(xc)   XCENC  =        31.44738438
  PAW double counting   =      1530.82619400    -1633.02521003
  entropy T*S    EENTRO =        -0.01055588
  eigenvalues    EBANDS =        17.40465892
  atomic energy  EATOM  =      1626.71546820
  Solvation  Ediel_sol  =         0.00000000
  ---------------------------------------------------
  free energy    TOTEN  =       -11.03024929 eV

  energy without entropy =      -11.01969341  energy(sigma->0) =      -11.02497135


--------------------------------------------------------------------------------------------------------




--------------------------------------- Iteration      1(   8)  ---------------------------------------


    POTLOK:  cpu time      0.0074: real time      0.0076
    SETDIJ:  cpu time      0.0047: real time      0.0048
     EDDAV:  cpu time      0.3061: real time      0.3077
       DOS:  cpu time      0.0010: real time      0.0010
    CHARGE:  cpu time      0.0259: real time      0.0260
    MIXING:  cpu time      0.0004: real time      0.0004
    --------------------------------------------
      LOOP:  cpu time      0.3455: real time      0.3474

 eigenvalue-minimisations  :  3232
 total energy-change (2. order) :-0.1153152E+00  (-0.1667890E-01)
 number of electron      17.9999991 magnetization       4.3065051
 augmentation part       10.2634640 magnetization       3.3983114

 Broyden mixing:
  rms(total) = 0.17108E+00    rms(broyden)= 0.17093E+00
  rms(prec ) = 0.18665E+00
  weight for this iteration     100.00

 eigenvalues of (default mixing * dielectric matrix)
  average eigenvalue GAMMA=   0.8422
  1.2952  0.5028  0.7286

 Free energy of the ion-electron system (eV)
  ---------------------------------------------------
  alpha Z        PSCENC =        39.63868225
  Ewald energy   TEWEN  =     -1054.56880693
  -Hartree energ DENC   =      -569.97537309
  -exchange      EXHF   =         0.00000000
  -V(xc)+E(xc)   XCENC  =        31.57615090
  PAW double counting   =      1566.15753287    -1670.06992192
  entropy T*S    EENTRO =        -0.00804299
  eigenvalues    EBANDS =        19.38874618
  atomic energy  EATOM  =      1626.71546820
  Solvation  Ediel_sol  =         0.00000000
  ---------------------------------------------------
  free energy    TOTEN  =       -11.14556453 eV

  energy without entropy =      -11.13752154  energy(sigma->0) =      -11.14154304


--------------------------------------------------------------------------------------------------------




--------------------------------------- Iteration      1(   9)  ---------------------------------------


    POTLOK:  cpu time      0.0073: real time      0.0076
    SETDIJ:  cpu time      0.0049: real time      0.0049
     EDDAV:  cpu time      0.2923: real time      0.2938
       DOS:  cpu time      0.0010: real time      0.0010
    CHARGE:  cpu time      0.0258: real time      0.0259
    MIXING:  cpu time      0.0004: real time      0.0004
    --------------------------------------------
      LOOP:  cpu time      0.3317: real time      0.3336

 eigenvalue-minimisations  :  3088
 total energy-change (2. order) :-0.2162342E-01  (-0.3486616E-02)
 number of electron      17.9999990 magnetization       4.2373389
 augmentation part       10.2960117 magnetization       3.4003591

 Broyden mixing:
  rms(total) = 0.93834E-01    rms(broyden)= 0.93715E-01
  rms(prec ) = 0.10379E+00
  weight for this iteration     100.00

 eigenvalues of (default mixing * dielectric matrix)
  average eigenvalue GAMMA=   0.9074
  1.7145  0.5215  0.6968  0.6968

 Free energy of the ion-electron system (eV)
  ---------------------------------------------------
  alpha Z        PSCENC =        39.63868225
  Ewald energy   TEWEN  =     -1054.56880693
  -Hartree energ DENC   =      -568.58022561
  -exchange      EXHF   =         0.00000000
  -V(xc)+E(xc)   XCENC  =        31.49629699
  PAW double counting   =      1592.74874138    -1697.62704133
  entropy T*S    EENTRO =        -0.00756774
  eigenvalues    EBANDS =        19.01726483
  atomic energy  EATOM  =      1626.71546820
  Solvation  Ediel_sol  =         0.00000000
  ---------------------------------------------------
  free energy    TOTEN  =       -11.16718796 eV

  energy without entropy =      -11.15962022  energy(sigma->0) =      -11.16340409


--------------------------------------------------------------------------------------------------------




--------------------------------------- Iteration      1(  10)  ---------------------------------------


    POTLOK:  cpu time      0.0073: real time      0.0075
    SETDIJ:  cpu time      0.0047: real time      0.0047
     EDDAV:  cpu time      0.2932: real time      0.2947
       DOS:  cpu time      0.0010: real time      0.0010
    CHARGE:  cpu time      0.0270: real time      0.0320
    MIXING:  cpu time      0.0003: real time      0.0003
    --------------------------------------------
      LOOP:  cpu time      0.3335: real time      0.3403

 eigenvalue-minimisations  :  3104
 total energy-change (2. order) : 0.2157276E-02  (-0.7361501E-03)
 number of electron      17.9999991 magnetization       4.1708053
 augmentation part       10.2969573 magnetization       3.3514913

 Broyden mixing:
  rms(total) = 0.45964E-01    rms(broyden)= 0.45960E-01
  rms(prec ) = 0.51868E-01
  weight for this iteration     100.00

 eigenvalues of (default mixing * dielectric matrix)
  average eigenvalue GAMMA=   1.0669
  2.2109  0.9886  0.9886  0.5395  0.6068

 Free energy of the ion-electron system (eV)
  ---------------------------------------------------
  alpha Z        PSCENC =        39.63868225
  Ewald energy   TEWEN  =     -1054.56880693
  -Hartree energ DENC   =      -567.98554896
  -exchange      EXHF   =         0.00000000
  -V(xc)+E(xc)   XCENC  =        31.45772772
  PAW double counting   =      1604.32266844    -1709.67563255
  entropy T*S    EENTRO =        -0.00794889
  eigenvalues    EBANDS =        18.93836003
  atomic energy  EATOM  =      1626.71546820
  Solvation  Ediel_sol  =         0.00000000
  ---------------------------------------------------
  free energy    TOTEN  =       -11.16503068 eV

  energy without entropy =      -11.15708180  energy(sigma->0) =      -11.16105624


--------------------------------------------------------------------------------------------------------




--------------------------------------- Iteration      1(  11)  ---------------------------------------


    POTLOK:  cpu time      0.0073: real time      0.0075
    SETDIJ:  cpu time      0.0047: real time      0.0047
     EDDAV:  cpu time      0.2972: real time      0.2987
       DOS:  cpu time      0.0010: real time      0.0010
    CHARGE:  cpu time      0.0257: real time      0.0258
    MIXING:  cpu time      0.0004: real time      0.0004
    --------------------------------------------
      LOOP:  cpu time      0.3365: real time      0.3383

 eigenvalue-minimisations  :  3152
 total energy-change (2. order) :-0.2146961E-03  (-0.8053025E-03)
 number of electron      17.9999991 magnetization       4.1757251
 augmentation part       10.2911057 magnetization       3.3825956

 Broyden mixing:
  rms(total) = 0.22331E-01    rms(broyden)= 0.22293E-01
  rms(prec ) = 0.26322E-01
  weight for this iteration     100.00

 eigenvalues of (default mixing * dielectric matrix)
  average eigenvalue GAMMA=   1.0421
  2.2840  1.0670  1.0670  0.5151  0.6598  0.6598

 Free energy of the ion-electron system (eV)
  ---------------------------------------------------
  alpha Z        PSCENC =        39.63868225
  Ewald energy   TEWEN  =     -1054.56880693
  -Hartree energ DENC   =      -567.35179334
  -exchange      EXHF   =         0.00000000
  -V(xc)+E(xc)   XCENC  =        31.43455160
  PAW double counting   =      1616.37669107    -1722.21222963
  entropy T*S    EENTRO =        -0.00833870
  eigenvalues    EBANDS =        18.81053009
  atomic energy  EATOM  =      1626.71546820
  Solvation  Ediel_sol  =         0.00000000
  ---------------------------------------------------
  free energy    TOTEN  =       -11.16524538 eV

  energy without entropy =      -11.15690668  energy(sigma->0) =      -11.16107603


--------------------------------------------------------------------------------------------------------




--------------------------------------- Iteration      1(  12)  ---------------------------------------


    POTLOK:  cpu time      0.0074: real time      0.0076
    SETDIJ:  cpu time      0.0047: real time      0.0047
     EDDAV:  cpu time      0.2986: real time      0.3001
       DOS:  cpu time      0.0010: real time      0.0010
    CHARGE:  cpu time      0.0265: real time      0.0266
    MIXING:  cpu time      0.0004: real time      0.0005
    --------------------------------------------
      LOOP:  cpu time      0.3386: real time      0.3405

 eigenvalue-minimisations  :  3016
 total energy-change (2. order) : 0.2518189E-03  (-0.6662745E-04)
 number of electron      17.9999991 magnetization       4.1746517
 augmentation part       10.3005931 magnetization       3.3927884

 Broyden mixing:
  rms(total) = 0.70793E-02    rms(broyden)= 0.70786E-02
  rms(prec ) = 0.86099E-02
  weight for this iteration     100.00

 eigenvalues of (default mixing * dielectric matrix)
  average eigenvalue GAMMA=   1.0408
  2.3796  1.1692  1.1692  0.5256  0.7058  0.7058  0.6304

 Free energy of the ion-electron system (eV)
  ---------------------------------------------------
  alpha Z        PSCENC =        39.63868225
  Ewald energy   TEWEN  =     -1054.56880693
  -Hartree energ DENC   =      -567.21996148
  -exchange      EXHF   =         0.00000000
  -V(xc)+E(xc)   XCENC  =        31.44300968
  PAW double counting   =      1616.72890454    -1722.55626862
  entropy T*S    EENTRO =        -0.00843685
  eigenvalues    EBANDS =        18.66241565
  atomic energy  EATOM  =      1626.71546820
  Solvation  Ediel_sol  =         0.00000000
  ---------------------------------------------------
  free energy    TOTEN  =       -11.16499356 eV

  energy without entropy =      -11.15655671  energy(sigma->0) =      -11.16077513


--------------------------------------------------------------------------------------------------------




--------------------------------------- Iteration      1(  13)  ---------------------------------------


    POTLOK:  cpu time      0.0076: real time      0.0078
    SETDIJ:  cpu time      0.0051: real time      0.0051
     EDDAV:  cpu time      0.2876: real time      0.2890
       DOS:  cpu time      0.0010: real time      0.0010
    CHARGE:  cpu time      0.0257: real time      0.0258
    MIXING:  cpu time      0.0005: real time      0.0005
    --------------------------------------------
      LOOP:  cpu time      0.3274: real time      0.3292

 eigenvalue-minimisations  :  3008
 total energy-change (2. order) : 0.3692447E-04  (-0.2005365E-04)
 number of electron      17.9999991 magnetization       4.1732544
 augmentation part       10.3049654 magnetization       3.3923768

 Broyden mixing:
  rms(total) = 0.34192E-02    rms(broyden)= 0.34109E-02
  rms(prec ) = 0.36779E-02
  weight for this iteration     100.00

 eigenvalues of (default mixing * dielectric matrix)
  average eigenvalue GAMMA=   1.0179
  2.4344  1.0786  1.0786  0.8348  0.8348  0.5241  0.6789  0.6789

 Free energy of the ion-electron system (eV)
  ---------------------------------------------------
  alpha Z        PSCENC =        39.63868225
  Ewald energy   TEWEN  =     -1054.56880693
  -Hartree energ DENC   =      -567.18181828
  -exchange      EXHF   =         0.00000000
  -V(xc)+E(xc)   XCENC  =        31.43727300
  PAW double counting   =      1616.99970956    -1722.84367012
  entropy T*S    EENTRO =        -0.00842496
  eigenvalues    EBANDS =        18.64663064
  atomic energy  EATOM  =      1626.71546820
  Solvation  Ediel_sol  =         0.00000000
  ---------------------------------------------------
  free energy    TOTEN  =       -11.16495664 eV

  energy without entropy =      -11.15653167  energy(sigma->0) =      -11.16074415


--------------------------------------------------------------------------------------------------------




--------------------------------------- Iteration      1(  14)  ---------------------------------------


    POTLOK:  cpu time      0.0073: real time      0.0076
    SETDIJ:  cpu time      0.0047: real time      0.0048
     EDDAV:  cpu time      0.2967: real time      0.2982
       DOS:  cpu time      0.0010: real time      0.0010
    CHARGE:  cpu time      0.0257: real time      0.0258
    MIXING:  cpu time      0.0004: real time      0.0004
    --------------------------------------------
      LOOP:  cpu time      0.3359: real time      0.3377

 eigenvalue-minimisations  :  3112
 total energy-change (2. order) :-0.3292734E-04  (-0.3752538E-05)
 number of electron      17.9999991 magnetization       4.1727584
 augmentation part       10.3058596 magnetization       3.3912155

 Broyden mixing:
  rms(total) = 0.28995E-02    rms(broyden)= 0.28955E-02
  rms(prec ) = 0.32123E-02
  weight for this iteration     100.00

 eigenvalues of (default mixing * dielectric matrix)
  average eigenvalue GAMMA=   1.0924
  2.4389  1.6780  1.1122  1.1122  0.8402  0.8402  0.5240  0.6533  0.6325

 Free energy of the ion-electron system (eV)
  ---------------------------------------------------
  alpha Z        PSCENC =        39.63868225
  Ewald energy   TEWEN  =     -1054.56880693
  -Hartree energ DENC   =      -567.18497063
  -exchange      EXHF   =         0.00000000
  -V(xc)+E(xc)   XCENC  =        31.43340034
  PAW double counting   =      1617.16005384    -1723.02504698
  entropy T*S    EENTRO =        -0.00842684
  eigenvalues    EBANDS =        18.67465718
  atomic energy  EATOM  =      1626.71546820
  Solvation  Ediel_sol  =         0.00000000
  ---------------------------------------------------
  free energy    TOTEN  =       -11.16498956 eV

  energy without entropy =      -11.15656273  energy(sigma->0) =      -11.16077614


--------------------------------------------------------------------------------------------------------




--------------------------------------- Iteration      1(  15)  ---------------------------------------


    POTLOK:  cpu time      0.0073: real time      0.0075
    SETDIJ:  cpu time      0.0047: real time      0.0047
     EDDAV:  cpu time      0.2860: real time      0.2874
       DOS:  cpu time      0.0010: real time      0.0010
    CHARGE:  cpu time      0.0256: real time      0.0257
    MIXING:  cpu time      0.0005: real time      0.0005
    --------------------------------------------
      LOOP:  cpu time      0.3250: real time      0.3268

 eigenvalue-minimisations  :  3008
 total energy-change (2. order) :-0.2592307E-05  (-0.2143916E-05)
 number of electron      17.9999991 magnetization       4.1724908
 augmentation part       10.3045938 magnetization       3.3891232

 Broyden mixing:
  rms(total) = 0.10063E-02    rms(broyden)= 0.10059E-02
  rms(prec ) = 0.10800E-02
  weight for this iteration     100.00

 eigenvalues of (default mixing * dielectric matrix)
  average eigenvalue GAMMA=   1.1133
  2.4475  2.0591  1.1145  1.1145  0.9456  0.9456  0.7310  0.5233  0.6261  0.6261

 Free energy of the ion-electron system (eV)
  ---------------------------------------------------
  alpha Z        PSCENC =        39.63868225
  Ewald energy   TEWEN  =     -1054.56880693
  -Hartree energ DENC   =      -567.21689549
  -exchange      EXHF   =         0.00000000
  -V(xc)+E(xc)   XCENC  =        31.43091792
  PAW double counting   =      1616.98340379    -1722.85403181
  entropy T*S    EENTRO =        -0.00842167
  eigenvalues    EBANDS =        18.71469160
  atomic energy  EATOM  =      1626.71546820
  Solvation  Ediel_sol  =         0.00000000
  ---------------------------------------------------
  free energy    TOTEN  =       -11.16499216 eV

  energy without entropy =      -11.15657048  energy(sigma->0) =      -11.16078132


--------------------------------------------------------------------------------------------------------




--------------------------------------- Iteration      1(  16)  ---------------------------------------


    POTLOK:  cpu time      0.0074: real time      0.0076
    SETDIJ:  cpu time      0.0047: real time      0.0047
     EDDAV:  cpu time      0.2419: real time      0.2431
       DOS:  cpu time      0.0010: real time      0.0010
    CHARGE:  cpu time      0.0257: real time      0.0258
    MIXING:  cpu time      0.0005: real time      0.0005
    --------------------------------------------
      LOOP:  cpu time      0.2812: real time      0.2827

 eigenvalue-minimisations  :  2360
 total energy-change (2. order) :-0.2139591E-05  (-0.2568892E-06)
 number of electron      17.9999991 magnetization       4.1721728
 augmentation part       10.3050258 magnetization       3.3892294

 Broyden mixing:
  rms(total) = 0.53539E-03    rms(broyden)= 0.53482E-03
  rms(prec ) = 0.62004E-03
  weight for this iteration     100.00

 eigenvalues of (default mixing * dielectric matrix)
  average eigenvalue GAMMA=   1.1642
  2.6506  2.4229  1.1125  1.1125  1.1088  1.1088  0.7536  0.7536  0.5234  0.6298
  0.6298

 Free energy of the ion-electron system (eV)
  ---------------------------------------------------
  alpha Z        PSCENC =        39.63868225
  Ewald energy   TEWEN  =     -1054.56880693
  -Hartree energ DENC   =      -567.21794978
  -exchange      EXHF   =         0.00000000
  -V(xc)+E(xc)   XCENC  =        31.43157977
  PAW double counting   =      1616.95679865    -1722.82433890
  entropy T*S    EENTRO =        -0.00841867
  eigenvalues    EBANDS =        18.71199110
  atomic energy  EATOM  =      1626.71546820
  Solvation  Ediel_sol  =         0.00000000
  ---------------------------------------------------
  free energy    TOTEN  =       -11.16499429 eV

  energy without entropy =      -11.15657563  energy(sigma->0) =      -11.16078496


--------------------------------------------------------------------------------------------------------




--------------------------------------- Iteration      1(  17)  ---------------------------------------


    POTLOK:  cpu time      0.0073: real time      0.0075
    SETDIJ:  cpu time      0.0049: real time      0.0049
     EDDAV:  cpu time      0.2307: real time      0.2319
       DOS:  cpu time      0.0009: real time      0.0009
    --------------------------------------------
      LOOP:  cpu time      0.2438: real time      0.2452

 eigenvalue-minimisations  :  2136
 total energy-change (2. order) :-0.1554822E-06  (-0.8906721E-07)
 number of electron      17.9999991 magnetization       4.1721728
 augmentation part       10.3050258 magnetization       3.3892294

 Free energy of the ion-electron system (eV)
  ---------------------------------------------------
  alpha Z        PSCENC =        39.63868225
  Ewald energy   TEWEN  =     -1054.56880693
  -Hartree energ DENC   =      -567.22492522
  -exchange      EXHF   =         0.00000000
  -V(xc)+E(xc)   XCENC  =        31.43194529
  PAW double counting   =      1616.94021763    -1722.80604280
  entropy T*S    EENTRO =        -0.00841584
  eigenvalues    EBANDS =        18.71688297
  atomic energy  EATOM  =      1626.71546820
  Solvation  Ediel_sol  =         0.00000000
  ---------------------------------------------------
  free energy    TOTEN  =       -11.16499445 eV

  energy without entropy =      -11.15657861  energy(sigma->0) =      -11.16078653


--------------------------------------------------------------------------------------------------------




 average (electrostatic) potential at core
  the test charge radii are     1.0452
  (the norm of the test charge is              1.0000)
       1 -85.4944       2 -85.4944
 
 
 
 E-fermi :   3.1733     XC(G=0):  -9.3919     alpha+bet : -8.9999

 Fermi energy:         3.1733254575

 spin component 1

 k-point     1 :       0.0000    0.0000    0.0000
  band No.  band energies     occupation 
      1      -3.1142      1.00000
      2      -2.6572      1.00000
      3      -0.1061      1.00000
      4       0.6353      1.00000
      5       0.6353      1.00000
      6       0.6362      1.00000
      7       0.6362      1.00000
      8       0.9118      1.00000
      9       1.5989      1.00000
     10       1.5989      1.00000
     11       1.6018      1.00000
     12       1.6018      1.00000
     13       2.1906      1.00000
     14       6.4314      0.00000
     15      10.8871      0.00000
     16      18.7964      0.00000

 k-point     2 :       0.1250   -0.0000    0.0000
  band No.  band energies     occupation 
      1      -2.5525      1.00000
      2      -2.1183      1.00000
      3       0.0659      1.00000
      4       0.4793      1.00000
      5       0.4814      1.00000
      6       0.8750      1.00000
      7       0.8759      1.00000
      8       0.9036      1.00000
      9       1.0429      1.00000
     10       1.1936      1.00000
     11       1.5506      1.00000
     12       1.5555      1.00000
     13       3.2684      0.00359
     14       7.2943      0.00000
     15      11.2307      0.00000
     16      19.4491      0.00000

 k-point     3 :       0.2500   -0.0000    0.0000
  band No.  band energies     occupation 
      1      -1.2694      1.00000
      2      -1.0447      1.00000
      3       0.2387      1.00000
      4       0.4759      1.00000
      5       0.4837      1.00000
      6       0.4853      1.00000
      7       0.5203      1.00000
      8       1.4358      1.00000
      9       1.4444      1.00000
     10       1.4887      1.00000
     11       1.4894      1.00000
     12       1.5471      1.00000
     13       5.1437      0.00000
     14       9.3721      0.00000
     15      12.2758      0.00000
     16      17.7569      0.00000

 k-point     4 :       0.3750   -0.0000    0.0000
  band No.  band energies     occupation 
      1      -1.0377      1.00000
      2      -1.0072      1.00000
      3      -0.1770      1.00000
      4      -0.0468      1.00000
      5       0.9453      1.00000
      6       1.0828      1.00000
      7       1.3228      1.00000
      8       1.3343      1.00000
      9       2.1625      1.00000
     10       2.1629      1.00000
     11       2.6040      1.00000
     12       3.4735      0.00000
     13       7.7323      0.00000
     14      12.0191      0.00000
     15      12.1673      0.00000
     16      12.9614      0.00000

 k-point     5 :       0.5000   -0.0000    0.0000
  band No.  band energies     occupation 
      1      -1.1439      1.00000
      2      -1.1393      1.00000
      3      -0.3114      1.00000
      4      -0.2432      1.00000
      5       1.1446      1.00000
      6       1.2384      1.00000
      7       1.2765      1.00000
      8       1.2893      1.00000
      9       2.4633      1.00000
     10       2.4635      1.00000
     11       5.0934      0.00000
     12       5.4322      0.00000
     13       9.2213      0.00000
     14      10.0181      0.00000
     15      10.5313      0.00000
     16      11.6541      0.00000

 k-point     6 :       0.1250    0.1250    0.0000
  band No.  band energies     occupation 
      1      -1.5362      1.00000
      2      -1.1931      1.00000
      3       0.2073      1.00000
      4       0.2099      1.00000
      5       0.3774      1.00000
      6       0.4170      1.00000
      7       0.6955      1.00000
      8       1.1648      1.00000
      9       1.4080      1.00000
     10       1.4365      1.00000
     11       1.4417      1.00000
     12       1.5801      1.00000
     13       4.5840      0.00000
     14       8.7427      0.00000
     15      11.9410      0.00000
     16      20.7049      0.00000

 k-point     7 :       0.2500    0.1250    0.0000
  band No.  band energies     occupation 
      1      -0.6184      1.00000
      2      -0.5599      1.00000
      3       0.0121      1.00000
      4       0.1887      1.00000
      5       0.4737      1.00000
      6       0.4890      1.00000
      7       0.9222      1.00000
      8       1.2455      1.00000
      9       1.2551      1.00000
     10       1.4634      1.00000
     11       2.6116      1.00000
     12       3.1566      0.68162
     13       6.7638      0.00000
     14      11.1371      0.00000
     15      13.2729      0.00000
     16      15.3148      0.00000

 k-point     8 :       0.3750    0.1250    0.0000
  band No.  band energies     occupation 
      1      -0.8135      1.00000
      2      -0.8056      1.00000
      3      -0.1847      1.00000
      4      -0.1026      1.00000
      5       1.0917      1.00000
      6       1.1039      1.00000
      7       1.1164      1.00000
      8       1.1644      1.00000
      9       1.6681      1.00000
     10       1.7669      1.00000
     11       5.0720      0.00000
     12       5.7821      0.00000
     13       9.7062      0.00000
     14      10.4248      0.00000
     15      11.3776      0.00000
     16      13.0828      0.00000

 k-point     9 :       0.2500    0.2500    0.0000
  band No.  band energies     occupation 
      1      -0.1193      1.00000
      2      -0.1103      1.00000
      3      -0.0122      1.00000
      4       0.0929      1.00000
      5       0.4851      1.00000
      6       0.4913      1.00000
      7       0.8780      1.00000
      8       0.8974      1.00000
      9       1.1789      1.00000
     10       1.4065      1.00000
     11       5.0967      0.00000
     12       5.9237      0.00000
     13       9.3156      0.00000
     14      13.4106      0.00000
     15      13.6708      0.00000
     16      13.6896      0.00000

 k-point    10 :       0.3750    0.2500    0.0000
  band No.  band energies     occupation 
      1      -0.1351      1.00000
      2      -0.1255      1.00000
      3       0.0817      1.00000
      4       0.1315      1.00000
      5       0.6424      1.00000
      6       0.6647      1.00000
      7       0.8332      1.00000
      8       0.8558      1.00000
      9       1.1778      1.00000
     10       1.2213      1.00000
     11       8.1059      0.00000
     12       8.4496      0.00000
     13      10.0936      0.00000
     14      10.7277      0.00000
     15      12.3007      0.00000
     16      13.1282      0.00000

 k-point    11 :       0.0000    0.0000    0.1667
  band No.  band energies     occupation 
      1      -3.0853      1.00000
      2      -2.6893      1.00000
      3      -0.0779      1.00000
      4       0.6353      1.00000
      5       0.6353      1.00000
      6       0.6361      1.00000
      7       0.6361      1.00000
      8       0.7210      1.00000
      9       1.5991      1.00000
     10       1.5991      1.00000
     11       1.6016      1.00000
     12       1.6016      1.00000
     13       2.5286      1.00000
     14       6.0235      0.00000
     15      11.4148      0.00000
     16      17.7223      0.00000

 k-point    12 :       0.1250   -0.0000    0.1667
  band No.  band energies     occupation 
      1      -2.5246      1.00000
      2      -2.1482      1.00000
      3       0.0906      1.00000
      4       0.4794      1.00000
      5       0.4813      1.00000
      6       0.7426      1.00000
      7       0.8751      1.00000
      8       0.8759      1.00000
      9       1.1140      1.00000
     10       1.1928      1.00000
     11       1.5509      1.00000
     12       1.5552      1.00000
     13       3.5052      0.00000
     14       6.8504      0.00000
     15      11.8008      0.00000
     16      18.2778      0.00000

 k-point    13 :       0.2500   -0.0000    0.1667
  band No.  band energies     occupation 
      1      -1.2534      1.00000
      2      -1.0586      1.00000
      3       0.2439      1.00000
      4       0.4038      1.00000
      5       0.4774      1.00000
      6       0.4883      1.00000
      7       0.6292      1.00000
      8       1.4364      1.00000
      9       1.4438      1.00000
     10       1.4570      1.00000
     11       1.4887      1.00000
     12       1.4894      1.00000
     13       5.3623      0.00000
     14       8.8171      0.00000
     15      12.9556      0.00000
     16      17.7662      0.00000

 k-point    14 :       0.3750   -0.0000    0.1667
  band No.  band energies     occupation 
      1      -1.0358      1.00000
      2      -1.0093      1.00000
      3      -0.1700      1.00000
      4      -0.0578      1.00000
      5       0.9590      1.00000
      6       1.0773      1.00000
      7       1.3236      1.00000
      8       1.3336      1.00000
      9       2.1625      1.00000
     10       2.1629      1.00000
     11       2.6451      1.00000
     12       3.3899      0.00000
     13       7.9343      0.00000
     14      11.2803      0.00000
     15      12.3974      0.00000
     16      13.0533      0.00000

 k-point    15 :       0.5000   -0.0000    0.1667
  band No.  band energies     occupation 
      1      -1.1437      1.00000
      2      -1.1398      1.00000
      3      -0.3076      1.00000
      4      -0.2485      1.00000
      5       1.1524      1.00000
      6       1.2338      1.00000
      7       1.2773      1.00000
      8       1.2883      1.00000
      9       2.4633      1.00000
     10       2.4634      1.00000
     11       5.1116      0.00000
     12       5.4049      0.00000
     13       9.2221      0.00000
     14       9.7885      0.00000
     15      10.8641      0.00000
     16      11.7493      0.00000

 k-point    16 :       0.1250    0.1250    0.1667
  band No.  band energies     occupation 
      1      -1.5128      1.00000
      2      -1.2153      1.00000
      3       0.2074      1.00000
      4       0.2097      1.00000
      5       0.3802      1.00000
      6       0.4145      1.00000
      7       0.7168      1.00000
      8       1.1287      1.00000
      9       1.4100      1.00000
     10       1.4369      1.00000
     11       1.4414      1.00000
     12       1.5384      1.00000
     13       4.8059      0.00000
     14       8.2230      0.00000
     15      12.5894      0.00000
     16      19.2696      0.00000

 k-point    17 :       0.2500    0.1250    0.1667
  band No.  band energies     occupation 
      1      -0.6144      1.00000
      2      -0.5638      1.00000
      3       0.0203      1.00000
      4       0.1702      1.00000
      5       0.4753      1.00000
      6       0.4886      1.00000
      7       0.9652      1.00000
      8       1.2462      1.00000
      9       1.2543      1.00000
     10       1.4337      1.00000
     11       2.6298      1.00000
     12       3.0889      0.99150
     13       6.9776      0.00000
     14      10.4894      0.00000
     15      13.9838      0.00000
     16      15.3660      0.00000

 k-point    18 :       0.3750    0.1250    0.1667
  band No.  band energies     occupation 
      1      -0.8131      1.00000
      2      -0.8062      1.00000
      3      -0.1798      1.00000
      4      -0.1089      1.00000
      5       1.0936      1.00000
      6       1.1096      1.00000
      7       1.1150      1.00000
      8       1.1626      1.00000
      9       1.6739      1.00000
     10       1.7598      1.00000
     11       5.1061      0.00000
     12       5.7140      0.00000
     13       9.8561      0.00000
     14      10.4657      0.00000
     15      11.3076      0.00000
     16      12.8796      0.00000

 k-point    19 :       0.2500    0.2500    0.1667
  band No.  band energies     occupation 
      1      -0.1187      1.00000
      2      -0.1110      1.00000
      3      -0.0064      1.00000
      4       0.0841      1.00000
      5       0.4861      1.00000
      6       0.4913      1.00000
      7       0.8793      1.00000
      8       0.8960      1.00000
      9       1.1959      1.00000
     10       1.3928      1.00000
     11       5.1339      0.00000
     12       5.8373      0.00000
     13       9.5268      0.00000
     14      12.8850      0.00000
     15      13.5871      0.00000
     16      13.7084      0.00000

 k-point    20 :       0.3750    0.2500    0.1667
  band No.  band energies     occupation 
      1      -0.1346      1.00000
      2      -0.1263      1.00000
      3       0.0849      1.00000
      4       0.1279      1.00000
      5       0.6431      1.00000
      6       0.6624      1.00000
      7       0.8357      1.00000
      8       0.8554      1.00000
      9       1.1808      1.00000
     10       1.2186      1.00000
     11       8.1321      0.00000
     12       8.4335      0.00000
     13      10.0747      0.00000
     14      10.5872      0.00000
     15      12.5439      0.00000
     16      13.1666      0.00000

 k-point    21 :       0.0000    0.0000    0.3333
  band No.  band energies     occupation 
      1      -3.0051      1.00000
      2      -2.7763      1.00000
      3       0.0108      1.00000
      4       0.4147      1.00000
      5       0.6354      1.00000
      6       0.6354      1.00000
      7       0.6360      1.00000
      8       0.6360      1.00000
      9       1.5996      1.00000
     10       1.5996      1.00000
     11       1.6009      1.00000
     12       1.6009      1.00000
     13       3.2619      0.00614
     14       5.1417      0.00000
     15      12.6562      0.00000
     16      15.9672      0.00000

 k-point    22 :       0.1250   -0.0000    0.3333
  band No.  band energies     occupation 
      1      -2.4473      1.00000
      2      -2.2296      1.00000
      3       0.1680      1.00000
      4       0.4789      1.00000
      5       0.4809      1.00000
      6       0.5062      1.00000
      7       0.8752      1.00000
      8       0.8757      1.00000
      9       1.1620      1.00000
     10       1.1897      1.00000
     11       1.5518      1.00000
     12       1.5543      1.00000
     13       4.1218      0.00000
     14       5.9364      0.00000
     15      13.0955      0.00000
     16      16.4717      0.00000

 k-point    23 :       0.2500   -0.0000    0.3333
  band No.  band energies     occupation 
      1      -1.2103      1.00000
      2      -1.0976      1.00000
      3       0.2605      1.00000
      4       0.3370      1.00000
      5       0.4797      1.00000
      6       0.4861      1.00000
      7       0.7967      1.00000
      8       1.2455      1.00000
      9       1.4378      1.00000
     10       1.4421      1.00000
     11       1.4889      1.00000
     12       1.4893      1.00000
     13       5.9531      0.00000
     14       7.8015      0.00000
     15      14.3449      0.00000
     16      17.4346      0.00000

 k-point    24 :       0.3750   -0.0000    0.3333
  band No.  band energies     occupation 
      1      -1.0304      1.00000
      2      -1.0151      1.00000
      3      -0.1498      1.00000
      4      -0.0857      1.00000
      5       0.9923      1.00000
      6       1.0598      1.00000
      7       1.3256      1.00000
      8       1.3315      1.00000
      9       2.1626      1.00000
     10       2.1628      1.00000
     11       2.7667      1.00000
     12       3.1881      0.33819
     13       8.4890      0.00000
     14      10.2643      0.00000
     15      12.5605      0.00000
     16      12.9675      0.00000

 k-point    25 :       0.5000   -0.0000    0.3333
  band No.  band energies     occupation 
      1      -1.1430      1.00000
      2      -1.1407      1.00000
      3      -0.2963      1.00000
      4      -0.2622      1.00000
      5       1.1727      1.00000
      6       1.2199      1.00000
      7       1.2796      1.00000
      8       1.2861      1.00000
      9       2.4633      1.00000
     10       2.4634      1.00000
     11       5.1647      0.00000
     12       5.3339      0.00000
     13       9.2467      0.00000
     14       9.5151      0.00000
     15      11.4040      0.00000
     16      11.9193      0.00000

 k-point    26 :       0.1250    0.1250    0.3333
  band No.  band energies     occupation 
      1      -1.4491      1.00000
      2      -1.2767      1.00000
      3       0.2079      1.00000
      4       0.2092      1.00000
      5       0.3878      1.00000
      6       0.4077      1.00000
      7       0.7820      1.00000
      8       1.0233      1.00000
      9       1.4172      1.00000
     10       1.4378      1.00000
     11       1.4405      1.00000
     12       1.4725      1.00000
     13       5.4007      0.00000
     14       7.2367      0.00000
     15      13.9651      0.00000
     16      17.4127      0.00000

 k-point    27 :       0.2500    0.1250    0.3333
  band No.  band energies     occupation 
      1      -0.6036      1.00000
      2      -0.5745      1.00000
      3       0.0442      1.00000
      4       0.1278      1.00000
      5       0.4790      1.00000
      6       0.4867      1.00000
      7       1.0762      1.00000
      8       1.2486      1.00000
      9       1.2514      1.00000
     10       1.3480      1.00000
     11       2.6879      1.00000
     12       2.9392      1.00000
     13       7.5601      0.00000
[...]
      2       1.4260      1.00000
      3       2.0360      1.00000
      4       2.0764      1.00000
      5       2.4020      1.00000
      6       2.4253      1.00000
      7       2.7324      1.00000
      8       2.7490      1.00000
      9       3.3884      0.00000
     10       3.4213      0.00000
     11       8.8785      0.00000
     12       9.0699      0.00000
     13      10.8045      0.00000
     14      11.0627      0.00000
     15      13.4628      0.00000
     16      13.8742      0.00000

 k-point    31 :       0.0000    0.0000    0.5000
  band No.  band energies     occupation 
      1      -2.4859      1.00000
      2      -2.4859      1.00000
      3       1.6913      1.00000
      4       1.6913      1.00000
      5       2.5479      1.00000
      6       2.5479      1.00000
      7       2.5479      1.00000
      8       2.5479      1.00000
      9       3.9073      0.00000
     10       3.9073      0.00000
     11       3.9073      0.00000
     12       3.9073      0.00000
     13       4.6068      0.00000
     14       4.6068      0.00000
     15      14.4802      0.00000
     16      14.4802      0.00000

 k-point    32 :       0.1250   -0.0000    0.5000
  band No.  band energies     occupation 
      1      -1.9161      1.00000
      2      -1.9161      1.00000
      3       1.8598      1.00000
      4       1.8598      1.00000
      5       2.3492      1.00000
      6       2.3492      1.00000
      7       2.8131      1.00000
      8       2.8131      1.00000
      9       3.2176      0.10520
     10       3.2176      0.10520
     11       3.8518      0.00000
     12       3.8518      0.00000
     13       5.6263      0.00000
     14       5.6263      0.00000
     15      14.9586      0.00000
     16      14.9586      0.00000

 k-point    33 :       0.2500   -0.0000    0.5000
  band No.  band energies     occupation 
      1      -0.4538      1.00000
      2      -0.4538      1.00000
      3       1.9060      1.00000
      4       1.9060      1.00000
      5       2.2143      1.00000
      6       2.2143      1.00000
      7       2.8270      1.00000
      8       2.8270      1.00000
      9       3.4971      0.00000
     10       3.4972      0.00000
     11       3.7192      0.00000
     12       3.7192      0.00000
     13       7.3545      0.00000
     14       7.3545      0.00000
     15      16.2434      0.00000
     16      16.2434      0.00000

 k-point    34 :       0.3750   -0.0000    0.5000
  band No.  band energies     occupation 
      1       0.3672      1.00000
      2       0.3672      1.00000
      3       1.7046      1.00000
      4       1.7046      1.00000
      5       3.1532      0.71562
      6       3.1532      0.71559
      7       3.4768      0.00000
      8       3.4768      0.00000
      9       3.5884      0.00000
     10       3.5884      0.00000
     11       4.2598      0.00000
     12       4.2598      0.00000
     13       9.6735      0.00000
     14       9.6735      0.00000
     15      13.4086      0.00000
     16      13.4086      0.00000

 k-point    35 :       0.5000   -0.0000    0.5000
  band No.  band energies     occupation 
      1       0.3409      1.00000
      2       0.3409      1.00000
      3       1.5754      1.00000
      4       1.5754      1.00000
      5       3.3555      0.00000
      6       3.3555      0.00000
      7       3.5349      0.00000
      8       3.5349      0.00000
      9       4.6052      0.00000
     10       4.6052      0.00000
     11       5.4070      0.00000
     12       5.4070      0.00000
     13      10.1560      0.00000
     14      10.1560      0.00000
     15      12.1530      0.00000
     16      12.1530      0.00000

 k-point    36 :       0.1250    0.1250    0.5000
  band No.  band energies     occupation 
      1      -0.8571      1.00000
      2      -0.8571      1.00000
      3       2.0059      1.00000
      4       2.0059      1.00000
      5       2.0466      1.00000
      6       2.0466      1.00000
      7       2.8498      1.00000
      8       2.8498      1.00000
      9       3.3695      0.00000
     10       3.3695      0.00000
     11       3.7150      0.00000
     12       3.7150      0.00000
     13       6.8515      0.00000
     14       6.8515      0.00000
     15      15.8786      0.00000
     16      15.8786      0.00000

 k-point    37 :       0.2500    0.1250    0.5000
  band No.  band energies     occupation 
      1       0.5928      1.00000
      2       0.5928      1.00000
      3       1.8227      1.00000
      4       1.8227      1.00000
      5       2.0614      1.00000
      6       2.0614      1.00000
      7       3.0486      0.99979
      8       3.0486      0.99979
      9       3.4867      0.00000
     10       3.4867      0.00000
     11       4.4168      0.00000
     12       4.4168      0.00000
     13       8.8656      0.00000
     14       8.8656      0.00000
     15      16.0566      0.00000
     16      16.0566      0.00000

 k-point    38 :       0.3750    0.1250    0.5000
  band No.  band energies     occupation 
      1       0.6871      1.00000
      2       0.6871      1.00000
      3       1.7257      1.00000
      4       1.7257      1.00000
      5       3.1958      0.26207
      6       3.1958      0.26204
      7       3.3068      0.00008
      8       3.3068      0.00008
      9       3.4092      0.00000
     10       3.4092      0.00000
     11       6.1894      0.00000
     12       6.1894      0.00000
     13      11.0286      0.00000
     14      11.0286      0.00000
     15      12.1018      0.00000
     16      12.1018      0.00000

 k-point    39 :       0.2500    0.2500    0.5000
  band No.  band energies     occupation 
      1       1.5078      1.00000
      2       1.5078      1.00000
      3       1.8383      1.00000
      4       1.8383      1.00000
      5       2.0166      1.00000
      6       2.0166      1.00000
      7       3.0344      0.99996
      8       3.0344      0.99996
      9       3.3442      0.00000
     10       3.3442      0.00000
     11       6.4607      0.00000
     12       6.4607      0.00000
     13      11.2958      0.00000
     14      11.2958      0.00000
     15      14.3739      0.00000
     16      14.3739      0.00000

 k-point    40 :       0.3750    0.2500    0.5000
  band No.  band energies     occupation 
      1       1.4239      1.00000
      2       1.4239      1.00000
      3       2.0554      1.00000
      4       2.0554      1.00000
      5       2.4144      1.00000
      6       2.4144      1.00000
      7       2.7402      1.00000
      8       2.7402      1.00000
      9       3.4060      0.00000
     10       3.4060      0.00000
     11       8.9762      0.00000
     12       8.9762      0.00000
     13      10.8714      0.00000
     14      10.8714      0.00000
     15      13.9789      0.00000
     16      13.9789      0.00000


--------------------------------------------------------------------------------------------------------


 soft charge-density along one line, spin component           1
         0         1         2         3         4         5         6         7         8         9
 total charge-density along one line
 
 soft charge-density along one line, spin component           2
         0         1         2         3         4         5         6         7         8         9
 total charge-density along one line
 
 pseudopotential strength for first ion, spin component:           1
 -5.542   0.000   0.000  -0.000   0.000  -5.998   0.000   0.000
  0.000  -5.679   0.000  -0.000   0.000   0.000  -6.131   0.000
  0.000   0.000  -5.699   0.000  -0.000   0.000   0.000  -6.149
 -0.000  -0.000   0.000  -5.679  -0.000  -0.000  -0.000   0.000
  0.000   0.000  -0.000  -0.000  -5.542   0.000   0.000  -0.000
 -5.998   0.000   0.000  -0.000   0.000  -6.401   0.000   0.000
  0.000  -6.131   0.000  -0.000   0.000   0.000  -6.529   0.000
  0.000   0.000  -6.149   0.000  -0.000   0.000   0.000  -6.547
 -0.000  -0.000   0.000  -6.131  -0.000  -0.000  -0.000   0.000
  0.000   0.000  -0.000  -0.000  -5.998   0.000   0.000  -0.000
  0.000   0.000   0.017   0.000  -0.000   0.000   0.000   0.017
  0.000   0.000   0.030   0.000  -0.000   0.000   0.000   0.029
 -0.000  -0.000  -0.000   0.000  -0.000  -0.000  -0.000  -0.000
  0.000   0.000  -0.000  -0.000   0.000   0.000   0.000  -0.000
 -0.000   0.000   0.000   0.000  -0.000  -0.000   0.000   0.000
 -0.000  -0.000  -0.000   0.000  -0.000  -0.000  -0.000  -0.000
  0.000   0.000  -0.000  -0.000   0.000   0.000   0.000  -0.000
 -0.000   0.000   0.000   0.000  -0.000  -0.000   0.000   0.000
 pseudopotential strength for first ion, spin component:           2
 -4.044  -0.000   0.000   0.000   0.000  -4.564  -0.000   0.000
 -0.000  -4.040  -0.000  -0.000  -0.000  -0.000  -4.560  -0.000
  0.000  -0.000  -4.072  -0.000  -0.000   0.000  -0.000  -4.590
  0.000  -0.000  -0.000  -4.040   0.000   0.000  -0.000  -0.000
  0.000  -0.000  -0.000   0.000  -4.044   0.000  -0.000  -0.000
 -4.564  -0.000   0.000   0.000   0.000  -5.029  -0.000   0.000
 -0.000  -4.560  -0.000  -0.000  -0.000  -0.000  -5.024  -0.000
  0.000  -0.000  -4.590  -0.000  -0.000   0.000  -0.000  -5.053
  0.000  -0.000  -0.000  -4.560   0.000   0.000  -0.000  -0.000
  0.000  -0.000  -0.000   0.000  -4.564   0.000  -0.000  -0.000
  0.000  -0.000   0.001  -0.000  -0.000   0.000  -0.000  -0.000
  0.000  -0.000   0.001  -0.000  -0.000   0.000  -0.000  -0.000
  0.000  -0.000   0.000   0.000   0.000   0.000  -0.000   0.000
  0.000  -0.000  -0.000   0.000   0.000   0.000  -0.000  -0.000
  0.000   0.000  -0.000   0.000   0.000   0.000   0.000  -0.000
  0.000  -0.000   0.000   0.000   0.000   0.000  -0.000   0.000
  0.000  -0.000  -0.000   0.000   0.000   0.000  -0.000  -0.000
  0.000   0.000  -0.000   0.000   0.000   0.000   0.000  -0.000
 total augmentation occupancy for first ion, spin component:           1
  2.593  -0.000   0.000   0.000   0.000  -1.183  -0.000  -0.000  -0.000  -0.000   0.000   0.000   0.000   0.000   0.000  -0.000
 -0.000   2.648   0.000  -0.000   0.000  -0.000  -0.876  -0.000   0.000   0.000   0.000   0.000   0.000   0.000   0.000   0.000
  0.000   0.000   3.142   0.000  -0.000  -0.000   0.000  -1.285  -0.000   0.000   0.773   0.037  -0.000   0.000   0.000   0.000
 -0.000  -0.000   0.000   2.648  -0.000   0.000   0.000   0.000  -0.876   0.000   0.000  -0.000  -0.000   0.000   0.000   0.000
  0.000  -0.000  -0.000   0.000   2.593  -0.000   0.000   0.000  -0.000  -1.183  -0.000   0.000   0.000   0.000   0.000  -0.000
 -1.183   0.000  -0.000   0.000  -0.000   1.350   0.000   0.000  -0.000   0.000  -0.000   0.000  -0.000  -0.000  -0.000   0.000
  0.000  -0.876   0.000   0.000   0.000   0.000   0.611  -0.000  -0.000  -0.000   0.000   0.000   0.000   0.000   0.000   0.000
 -0.000  -0.000  -1.285   0.000   0.000   0.000   0.000   0.947  -0.000  -0.000  -0.959   0.039   0.000   0.000  -0.000  -0.000
  0.000   0.000   0.000  -0.876   0.000   0.000  -0.000  -0.000   0.611   0.000   0.000   0.000  -0.000   0.000   0.000   0.000
 -0.000  -0.000   0.000   0.000  -1.183   0.000  -0.000  -0.000  -0.000   1.350   0.000  -0.000  -0.000   0.000   0.000   0.000
  0.000   0.000   0.773   0.000  -0.000  -0.000   0.000  -0.959   0.000   0.000   1.782  -0.096   0.000   0.000   0.000   0.000
  0.000   0.000   0.037   0.000   0.000   0.000   0.000   0.039   0.000  -0.000  -0.096   0.018   0.000   0.000   0.000   0.000
  0.000  -0.000   0.000  -0.000   0.000  -0.000   0.000   0.000   0.000  -0.000   0.000   0.000   0.227  -0.000   0.000  -0.016
  0.000   0.000   0.000   0.000   0.000  -0.000   0.000   0.000   0.000  -0.000   0.000   0.000  -0.000   0.060   0.000   0.000
  0.000   0.000   0.000  -0.000   0.000  -0.000   0.000  -0.000  -0.000  -0.000   0.000   0.000  -0.000   0.000   0.227   0.000
 -0.000   0.000   0.000  -0.000  -0.000   0.000  -0.000  -0.000   0.000   0.000   0.000  -0.000  -0.016   0.000   0.000   0.001
  0.000  -0.000   0.000   0.000   0.000   0.000  -0.000   0.000   0.000  -0.000   0.000   0.000  -0.000  -0.004   0.000   0.000
 -0.000   0.000  -0.000   0.000  -0.000   0.000   0.000   0.000   0.000   0.000  -0.000   0.000   0.000   0.000  -0.016   0.000
 total augmentation occupancy for first ion, spin component:           2
  2.063   0.000   0.000   0.000   0.000  -0.985   0.000   0.000  -0.000  -0.000  -0.000   0.000  -0.000  -0.000  -0.000   0.000
 -0.000   2.165   0.000  -0.000  -0.000   0.000  -0.984   0.000   0.000   0.000  -0.000   0.000   0.000   0.000  -0.000   0.000
  0.000  -0.000   1.958   0.000  -0.000   0.000   0.000  -0.858   0.000   0.000   0.014   0.094   0.000   0.000  -0.000   0.000
 -0.000  -0.000   0.000   2.165   0.000   0.000   0.000   0.000  -0.984   0.000   0.000  -0.000   0.000   0.000   0.000   0.000
  0.000  -0.000  -0.000   0.000   2.063  -0.000  -0.000   0.000  -0.000  -0.985   0.000  -0.000  -0.000  -0.000   0.000   0.000
 -0.985   0.000   0.000   0.000  -0.000   0.277   0.000  -0.000  -0.000   0.000   0.000  -0.000   0.000   0.000   0.000  -0.000
  0.000  -0.984  -0.000   0.000   0.000  -0.000   0.311   0.000  -0.000   0.000   0.000  -0.000   0.000   0.000  -0.000   0.000
  0.000   0.000  -0.858   0.000   0.000  -0.000   0.000   0.263  -0.000   0.000   0.069  -0.059  -0.000   0.000   0.000  -0.000
  0.000   0.000   0.000  -0.984   0.000   0.000  -0.000  -0.000   0.311   0.000   0.000   0.000  -0.000  -0.000  -0.000   0.000
 -0.000  -0.000   0.000   0.000  -0.985  -0.000   0.000   0.000  -0.000   0.277  -0.000   0.000   0.000   0.000   0.000  -0.000
 -0.000  -0.000   0.014   0.000   0.000   0.000   0.000   0.069   0.000  -0.000  -0.174   0.078   0.000   0.000   0.000   0.000
  0.000   0.000   0.094   0.000  -0.000  -0.000  -0.000  -0.059   0.000   0.000   0.078  -0.001   0.000   0.000  -0.000   0.000
 -0.000   0.000   0.000   0.000  -0.000   0.000   0.000  -0.000   0.000   0.000   0.000   0.000   0.005   0.000   0.000   0.002
 -0.000   0.000   0.000   0.000   0.000   0.000   0.000   0.000  -0.000   0.000   0.000   0.000   0.000  -0.017   0.000   0.000
 -0.000   0.000  -0.000   0.000   0.000   0.000   0.000   0.000  -0.000   0.000   0.000  -0.000   0.000   0.000   0.005   0.000
  0.000   0.000   0.000   0.000   0.000  -0.000   0.000  -0.000  -0.000  -0.000   0.000   0.000   0.002   0.000   0.000  -0.000
 -0.000   0.000   0.000   0.000  -0.000   0.000  -0.000   0.000   0.000  -0.000   0.000   0.000  -0.000   0.001  -0.000  -0.000
  0.000  -0.000   0.000   0.000   0.000  -0.000   0.000  -0.000   0.000  -0.000   0.000   0.000  -0.000   0.000   0.002   0.000


------------------------ aborting loop because EDIFF is reached ----------------------------------------


    CHARGE:  cpu time      0.0270: real time      0.0271
    FORLOC:  cpu time      0.0003: real time      0.0003
    FORNL :  cpu time      0.0168: real time      0.0168
    STRESS:  cpu time      0.0455: real time      0.0456
    FORCOR:  cpu time      0.0073: real time      0.0073
    FORHAR:  cpu time      0.0007: real time      0.0007
    MIXING:  cpu time      0.0004: real time      0.0004
    OFIELD:  cpu time      0.0000: real time      0.0000

  FORCE on cell =-STRESS in cart. coord.  units (eV):
  Direction    XX          YY          ZZ          XY          YZ          ZX
  --------------------------------------------------------------------------------------
  Alpha Z    39.63868    39.63868    39.63868
  Ewald     -59.61202   -59.61202  -935.34508    -0.00000     0.00000     0.00000
  Hartree   382.82015   382.82015  -198.40938    -0.00000    -0.00000    -0.00000
  E(xc)     -90.99216   -90.99215   -91.34887     0.00000    -0.00000    -0.00000
  Local    -721.39078  -721.39089   736.46430    -0.00010    -0.00000    -0.00000
  n-local   -11.63568    -9.54791   -14.76085    -9.65680    -0.07634    -0.09465
  augment   312.55598   312.55609   311.66193     0.00010    -0.00000    -0.00000
  Kinetic   146.93280   142.32143   150.71386     8.88796    -0.04084     0.00566
  Fock        0.00000     0.00000     0.00000     0.00000     0.00000     0.00000
  -------------------------------------------------------------------------------------
  Total      -2.94481    -2.94481    -1.38541    -0.00000     0.00000     0.00000
  in kB    -110.38117  -110.38117   -51.92963    -0.00000     0.00000     0.00000
  external pressure =      -90.90 kB  Pullay stress =        0.00 kB


 VOLUME and BASIS-vectors are now :
 -----------------------------------------------------------------------------
  energy-cutoff  :      400.00
  volume of cell :       42.74
      direct lattice vectors                 reciprocal lattice vectors
     2.470000000  0.000000000  0.000000000     0.404858300  0.233745048  0.000000000
    -1.235000000  2.139082747  0.000000000     0.000000000  0.467490097  0.000000000
     0.000000000  0.000000000  8.090000000     0.000000000  0.000000000  0.123609394

  length of vectors
     2.470000000  2.470000000  8.090000000     0.467490097  0.467490097  0.123609394


 FORCES acting on ions
    electron-ion (+dipol)            ewald-force                    non-local-force                 convergence-correction
 -----------------------------------------------------------------------------------------------
   -.497E-05 0.287E-05 0.139E-13   -.208E-13 0.254E-14 -.503E-13   0.000E+00 0.000E+00 0.000E+00   0.202E-12 -.103E-12 -.129E-12
   -.400E-05 0.231E-05 -.675E-12   -.268E-13 0.108E-13 0.503E-13   0.542E-19 0.000E+00 0.000E+00   -.217E-11 0.125E-11 0.139E-12
 -----------------------------------------------------------------------------------------------
   -.897E-05 0.518E-05 -.661E-12   -.476E-13 0.133E-13 0.000E+00   0.542E-19 0.000E+00 0.000E+00   -.197E-11 0.115E-11 0.101E-13
 
 
 POSITION                                       TOTAL-FORCE (eV/Angst)
 -----------------------------------------------------------------------------------
      0.00000      0.00000      0.00000        -0.000000     -0.000000      0.000000
      0.00000      1.42606      4.04500         0.000000      0.000000      0.000000
 -----------------------------------------------------------------------------------
    total drift:                               -0.000009      0.000005     -0.000000


--------------------------------------------------------------------------------------------------------



  FREE ENERGIE OF THE ION-ELECTRON SYSTEM (eV)
  ---------------------------------------------------
  free  energy   TOTEN  =       -11.16499445 eV

  energy  without entropy=      -11.15657861  energy(sigma->0) =      -11.16078653
 


--------------------------------------------------------------------------------------------------------


    POTLOK:  cpu time      0.0125: real time      0.0126


--------------------------------------------------------------------------------------------------------


     LOOP+:  cpu time      5.4838: real time      5.5266
    4ORBIT:  cpu time      0.0000: real time      0.0000

 total amount of memory used by VASP MPI-rank0    32664. kBytes
=======================================================================

   base      :      30000. kBytes
   nonl-proj :        810. kBytes
   fftplans  :        291. kBytes
   grid      :        713. kBytes
   one-center:         31. kBytes
   wavefun   :        819. kBytes
 
  
  
 General timing and accounting informations for this job:
 ========================================================
  
                  Total CPU time used (sec):        6.250
                            User time (sec):        5.772
                          System time (sec):        0.478
                         Elapsed time (sec):        8.224
  
                   Maximum memory used (kb):      213596.
                   Average memory used (kb):          N/A
  
                          Minor page faults:        21772
                          Major page faults:           80
                 Voluntary context switches:         2226
