Pt-fcc                                  
   1.00000000000000     
     0.000000    1.967793    1.967793
     1.967793    0.000000    1.967793
     1.967793    1.967793    0.000000
   Pt
     1
Direct
  0.000000  0.000000  0.000000
 
   40   40   40
  133.37      133.25      132.60      130.58      126.16      118.52      107.40      93.307      77.407      61.265    
  46.420      34.009      24.540      17.887      13.449      10.430      8.3723      7.0385      6.2287      5.7988    
  5.6647      5.7988      6.2287      7.0385      8.3723      10.430      13.449      17.887      24.540      34.009    
  46.420      61.265      77.407      93.307      107.40      118.52      126.16      130.58      132.60      133.25    
  133.25      132.87      131.52      128.25      122.13      112.62      99.848      84.688      68.546      53.005    
  39.414      28.586      20.685      15.311      11.717      9.2362      7.5863      6.5473      5.9478      5.6754    
  5.6754      5.9478      6.5473      7.5863      9.2362      11.717      15.311      20.685      28.586      39.414    
  53.005      68.546      84.688      99.848      112.62      122.13      128.25      131.52      132.87      133.25    
  132.60      131.52      128.88      123.81      115.63      104.18      90.038      74.366      58.664      44.373    
  32.521      23.537      17.246      13.036      10.145      8.1748      6.8968      6.1198      5.7068      5.5778    
  5.7068      6.1198      6.8968      8.1748      10.145      13.036      17.246      23.537      32.521      44.373    
  58.664      74.366      90.038      104.18      115.62      123.81      128.88      131.52      132.60      132.87    
  130.58      128.25      123.81      116.60      106.32      93.285      78.396      62.989      48.479      36.013    
  26.221      19.142      14.329      11.054      8.7790      7.2649      6.3092      5.7561      5.5042      5.5042    
  5.7561      6.3092      7.2649      8.7790      11.054      14.329      19.142      26.221      36.013      48.480    
  62.989      78.396      93.285      106.32      116.60      123.81      128.25      130.58      131.52      131.52    
  126.16      122.13      115.63      106.32      94.370      80.451      65.693      51.406      38.756      28.498    
  20.850      15.528      11.908      9.3664      7.6340      6.5074      5.8192      5.4517      5.3366      5.4517    
  5.8192      6.5074      7.6340      9.3664      11.908      15.528      20.850      28.498      38.756      51.406    
  65.693      80.451      94.370      106.32      115.62      122.13      126.16      128.25      128.88      128.25    
  118.52      112.62      104.18      93.285      80.451      66.612      52.926      40.504      30.152      22.211    
  16.544      12.649      9.8996      7.9825      6.7030      5.8904      5.4167      5.1998      5.1998      5.4168    
  5.8904      6.7030      7.9825      9.8996      12.649      16.544      22.211      30.152      40.504      52.926    
  66.612      80.451      93.285      104.18      112.62      118.52      122.13      123.81      123.81      122.13    
  107.40      99.848      90.038      78.396      65.693      52.926      41.105      31.022      23.089      17.284    
  13.225      10.341      8.2867      6.8828      5.9630      5.3955      5.0896      4.9933      5.0896      5.3955    
  5.9630      6.8828      8.2867      10.341      13.225      17.284      23.089      31.022      41.105      52.926    
  65.693      78.396      90.038      99.848      107.40      112.62      115.62      116.60      115.62      112.62    
  93.307      84.688      74.366      62.989      51.406      40.504      31.022      23.392      17.675      13.593    
  10.656      8.5237      7.0331      6.0296      5.3842      5.0029      4.8265      4.8265      5.0029      5.3842    
  6.0296      7.0331      8.5237      10.656      13.593      17.675      23.392      31.022      40.504      51.406    
  62.989      74.366      84.688      93.307      99.848      104.18      106.32      106.32      104.18      99.848    
  77.407      68.546      58.664      48.479      38.756      30.152      23.089      17.675      13.720      10.821    
  8.6744      7.1413      6.0833      5.3792      4.9373      4.6954      4.6185      4.6954      4.9373      5.3792    
  6.0833      7.1413      8.6744      10.821      13.720      17.675      23.089      30.152      38.756      48.479    
  58.664      68.546      77.407      84.688      90.038      93.285      94.370      93.285      90.038      84.688    
  61.265      53.005      44.373      36.013      28.498      22.211      17.284      13.593      10.821      8.7261    
  7.1980      6.1181      5.3778      4.8912      4.5977      4.4598      4.4598      4.5977      4.8912      5.3778    
  6.1181      7.1980      8.7261      10.821      13.593      17.284      22.211      28.498      36.013      44.373    
  53.005      61.265      68.546      74.366      78.396      80.451      80.451      78.396      74.366      68.546    
  46.420      39.414      32.521      26.221      20.850      16.544      13.225      10.656      8.6744      7.1980    
  6.1302      5.3777      4.8639      4.5327      4.3474      4.2878      4.3474      4.5327      4.8639      5.3777    
  6.1302      7.1980      8.6744      10.656      13.225      16.544      20.850      26.221      32.521      39.414    
  46.420      53.005      58.664      62.989      65.693      66.612      65.693      62.989      58.664      53.005    
  34.009      28.586      23.537      19.142      15.528      12.649      10.341      8.5237      7.1413      6.1181    
  5.3777      4.8548      4.5002      4.2801      4.1747      4.1747      4.2801      4.5002      4.8548      5.3777    
  6.1181      7.1413      8.5237      10.341      12.649      15.528      19.142      23.537      28.586      34.009    
  39.414      44.373      48.479      51.406      52.926      52.926      51.406      48.480      44.373      39.414    
  24.540      20.685      17.246      14.329      11.908      9.8996      8.2867      7.0331      6.0833      5.3778    
  4.8639      4.5002      4.2577      4.1185      4.0731      4.1185      4.2577      4.5002      4.8639      5.3778    
  6.0833      7.0331      8.2867      9.8996      11.908      14.329      17.246      20.685      24.540      28.586    
  32.521      36.013      38.756      40.504      41.105      40.504      38.756      36.013      32.521      28.586    
  17.887      15.311      13.036      11.054      9.3664      7.9825      6.8828      6.0296      5.3792      4.8912    
  4.5327      4.2801      4.1185      4.0395      4.0395      4.1185      4.2801      4.5327      4.8912      5.3793    
  6.0296      6.8828      7.9825      9.3664      11.054      13.036      15.311      17.887      20.685      23.537    
  26.221      28.498      30.152      31.022      31.022      30.152      28.498      26.221      23.537      20.685    
  13.449      11.717      10.145      8.7790      7.6340      6.7030      5.9630      5.3842      4.9373      4.5977    
  4.3474      4.1747      4.0731      4.0395      4.0731      4.1747      4.3474      4.5977      4.9373      5.3842    
  5.9630      6.7030      7.6340      8.7790      10.145      11.717      13.449      15.311      17.246      19.142    
  20.850      22.211      23.089      23.392      23.089      22.211      20.850      19.142      17.246      15.311    
  10.430      9.2362      8.1748      7.2649      6.5074      5.8904      5.3955      5.0029      4.6954      4.4598    
  4.2878      4.1747      4.1185      4.1185      4.1747      4.2878      4.4598      4.6954      5.0029      5.3955    
  5.8904      6.5074      7.2649      8.1748      9.2362      10.430      11.717      13.036      14.329      15.528    
  16.544      17.284      17.675      17.675      17.284      16.544      15.528      14.329      13.036      11.717    
  8.3723      7.5863      6.8968      6.3092      5.8192      5.4167      5.0896      4.8265      4.6185      4.4598    
  4.3474      4.2801      4.2577      4.2801      4.3474      4.4598      4.6185      4.8265      5.0896      5.4167    
  5.8192      6.3092      6.8968      7.5863      8.3723      9.2362      10.145      11.054      11.908      12.649    
  13.225      13.593      13.720      13.593      13.225      12.649      11.908      11.054      10.145      9.2362    
  7.0385      6.5473      6.1198      5.7561      5.4517      5.1998      4.9933      4.8265      4.6954      4.5977    
  4.5327      4.5002      4.5002      4.5327      4.5977      4.6954      4.8265      4.9933      5.1998      5.4517    
  5.7561      6.1198      6.5473      7.0386      7.5863      8.1748      8.7790      9.3664      9.8996      10.341    
  10.656      10.821      10.821      10.656      10.341      9.8996      9.3664      8.7790      8.1748      7.5863    
  6.2287      5.9478      5.7068      5.5042      5.3366      5.1998      5.0896      5.0029      4.9373      4.8912    
  4.8639      4.8548      4.8639      4.8912      4.9373      5.0029      5.0896      5.1998      5.3366      5.5042    
  5.7068      5.9478      6.2287      6.5473      6.8968      7.2649      7.6340      7.9825      8.2867      8.5237    
  8.6744      8.7261      8.6744      8.5237      8.2867      7.9825      7.6340      7.2649      6.8968      6.5473    
  5.7988      5.6754      5.5778      5.5042      5.4517      5.4168      5.3955      5.3842      5.3792      5.3778    
  5.3777      5.3777      5.3778      5.3793      5.3842      5.3955      5.4167      5.4517      5.5042      5.5778    
  5.6754      5.7988      5.9478      6.1198      6.3092      6.5074      6.7030      6.8828      7.0331      7.1413    
  7.1980      7.1980      7.1413      7.0331      6.8828      6.7030      6.5074      6.3092      6.1198      5.9478    
  5.6647      5.6754      5.7068      5.7561      5.8192      5.8904      5.9630      6.0296      6.0833      6.1181    
  6.1302      6.1181      6.0833      6.0296      5.9630      5.8904      5.8192      5.7561      5.7068      5.6754    
  5.6647      5.6754      5.7068      5.7561      5.8192      5.8904      5.9630      6.0296      6.0833      6.1181    
  6.1302      6.1181      6.0833      6.0296      5.9630      5.8904      5.8192      5.7561      5.7068      5.6754    
  5.7988      5.9478      6.1198      6.3092      6.5074      6.7030      6.8828      7.0331      7.1413      7.1980    
  7.1980      7.1413      7.0331      6.8828      6.7030      6.5074      6.3092      6.1198      5.9478      5.7988    
  5.6754      5.5778      5.5042      5.4517      5.4167      5.3955      5.3842      5.3793      5.3778      5.3777    
  5.3777      5.3778      5.3792      5.3842      5.3955      5.4168      5.4517      5.5042      5.5778      5.6754    
  6.2287      6.5473      6.8968      7.2649      7.6340      7.9825      8.2867      8.5237      8.6744      8.7261    
  8.6744      8.5237      8.2867      7.9825      7.6340      7.2649      6.8968      6.5473      6.2287      5.9478    
  5.7068      5.5042      5.3366      5.1998      5.0896      5.0029      4.9373      4.8912      4.8639      4.8548    
  4.8639      4.8912      4.9373      5.0029      5.0896      5.1998      5.3366      5.5042      5.7068      5.9478    
  7.0385      7.5863      8.1748      8.7790      9.3664      9.8996      10.341      10.656      10.821      10.821    
  10.656      10.341      9.8996      9.3664      8.7790      8.1748      7.5863      7.0386      6.5473      6.1198    
  5.7561      5.4517      5.1998      4.9933      4.8265      4.6954      4.5977      4.5327      4.5002      4.5002    
  4.5327      4.5977      4.6954      4.8265      4.9933      5.1998      5.4517      5.7561      6.1198      6.5473    
  8.3723      9.2362      10.145      11.054      11.908      12.649      13.225      13.593      13.720      13.593    
  13.225      12.649      11.908      11.054      10.145      9.2362      8.3723      7.5863      6.8968      6.3092    
  5.8192      5.4167      5.0896      4.8265      4.6185      4.4598      4.3474      4.2801      4.2577      4.2801    
  4.3474      4.4598      4.6185      4.8265      5.0896      5.4167      5.8192      6.3092      6.8968      7.5863    
  10.430      11.717      13.036      14.329      15.528      16.544      17.284      17.675      17.675      17.284    
  16.544      15.528      14.329      13.036      11.717      10.430      9.2362      8.1748      7.2649      6.5074    
  5.8904      5.3955      5.0029      4.6954      4.4598      4.2878      4.1747      4.1185      4.1185      4.1747    
  4.2878      4.4598      4.6954      5.0029      5.3955      5.8904      6.5074      7.2649      8.1748      9.2362    
  13.449      15.311      17.246      19.142      20.850      22.211      23.089      23.392      23.089      22.211    
  20.850      19.142      17.246      15.311      13.449      11.717      10.145      8.7790      7.6340      6.7030    
  5.9630      5.3842      4.9373      4.5977      4.3474      4.1747      4.0731      4.0395      4.0731      4.1747    
  4.3474      4.5977      4.9373      5.3842      5.9630      6.7030      7.6340      8.7790      10.145      11.717    
  17.887      20.685      23.537      26.221      28.498      30.152      31.022      31.022      30.152      28.498    
  26.221      23.537      20.685      17.887      15.311      13.036      11.054      9.3664      7.9825      6.8828    
  6.0296      5.3793      4.8912      4.5327      4.2801      4.1185      4.0395      4.0395      4.1185      4.2801    
  4.5327      4.8912      5.3792      6.0296      6.8828      7.9825      9.3664      11.054      13.036      15.311    
  24.540      28.586      32.521      36.013      38.756      40.504      41.105      40.504      38.756      36.013    
  32.521      28.586      24.540      20.685      17.246      14.329      11.908      9.8996      8.2867      7.0331    
  6.0833      5.3778      4.8639      4.5002      4.2577      4.1185      4.0731      4.1185      4.2577      4.5002    
  4.8639      5.3778      6.0833      7.0331      8.2867      9.8996      11.908      14.329      17.246      20.685    
  34.009      39.414      44.373      48.480      51.406      52.926      52.926      51.406      48.479      44.373    
  39.414      34.009      28.586      23.537      19.142      15.528      12.649      10.341      8.5237      7.1413    
  6.1181      5.3777      4.8548      4.5002      4.2801      4.1747      4.1747      4.2801      4.5002      4.8548    
  5.3777      6.1181      7.1413      8.5237      10.341      12.649      15.528      19.142      23.537      28.586    
  46.420      53.005      58.664      62.989      65.693      66.612      65.693      62.989      58.664      53.005    
  46.420      39.414      32.521      26.221      20.850      16.544      13.225      10.656      8.6744      7.1980    
  6.1302      5.3777      4.8639      4.5327      4.3474      4.2878      4.3474      4.5327      4.8639      5.3777    
  6.1302      7.1980      8.6744      10.656      13.225      16.544      20.850      26.221      32.521      39.414    
  61.265      68.546      74.366      78.396      80.451      80.451      78.396      74.366      68.546      61.265    
  53.005      44.373      36.013      28.498      22.211      17.284      13.593      10.821      8.7261      7.1980    
  6.1181      5.3778      4.8912      4.5977      4.4598      4.4598      4.5977      4.8912      5.3778      6.1181    
  7.1980      8.7261      10.821      13.593      17.284      22.211      28.498      36.013      44.373      53.005    
  77.407      84.688      90.038      93.285      94.370      93.285      90.038      84.688      77.407      68.546    
  58.664      48.479      38.756      30.152      23.089      17.675      13.720      10.821      8.6744      7.1413    
  6.0833      5.3792      4.9373      4.6954      4.6185      4.6954      4.9373      5.3792      6.0833      7.1413    
  8.6744      10.821      13.720      17.675      23.089      30.152      38.756      48.479      58.664      68.546    
  93.307      99.848      104.18      106.32      106.32      104.18      99.848      93.307      84.688      74.366    
  62.989      51.406      40.504      31.022      23.392      17.675      13.593      10.656      8.5237      7.0331    
  6.0296      5.3842      5.0029      4.8265      4.8265      5.0029      5.3842      6.0296      7.0331      8.5237    
  10.656      13.593      17.675      23.392      31.022      40.504      51.406      62.989      74.366      84.688    
  107.40      112.62      115.62      116.60      115.62      112.62      107.40      99.848      90.038      78.396    
  65.693      52.926      41.105      31.022      23.089      17.284      13.225      10.341      8.2867      6.8828    
  5.9630      5.3955      5.0896      4.9933      5.0896      5.3955      5.9630      6.8828      8.2867      10.341    
  13.225      17.284      23.089      31.022      41.105      52.926      65.693      78.396      90.038      99.848    
  118.52      122.13      123.81      123.81      122.13      118.52      112.62      104.18      93.285      80.451    
  66.612      52.926      40.504      30.152      22.211      16.544      12.649      9.8996      7.9825      6.7030    
  5.8904      5.4168      5.1998      5.1998      5.4167      5.8904      6.7030      7.9825      9.8996      12.649    
  16.544      22.211      30.152      40.504      52.926      66.612      80.451      93.285      104.18      112.62    
  126.16      128.25      128.88      128.25      126.16      122.13      115.62      106.32      94.370      80.451    
  65.693      51.406      38.756      28.498      20.850      15.528      11.908      9.3664      7.6340      6.5074    
  5.8192      5.4517      5.3366      5.4517      5.8192      6.5074      7.6340      9.3664      11.908      15.528    
  20.850      28.498      38.756      51.406      65.693      80.451      94.370      106.32      115.63      122.13    
  130.58      131.52      131.52      130.58      128.25      123.81      116.60      106.32      93.285      78.396    
  62.989      48.480      36.013      26.221      19.142      14.329      11.054      8.7790      7.2649      6.3092    
  5.7561      5.5042      5.5042      5.7561      6.3092      7.2649      8.7790      11.054      14.329      19.142    
  26.221      36.013      48.479      62.989      78.396      93.285      106.32      116.60      123.81      128.25    
  132.60      132.87      132.60      131.52      128.88      123.81      115.62      104.18      90.038      74.366    
  58.664      44.373      32.521      23.537      17.246      13.036      10.145      8.1748      6.8968      6.1198    
  5.7068      5.5778      5.7068      6.1198      6.8968      8.1748      10.145      13.036      17.246      23.537    
  32.521      44.373      58.664      74.366      90.038      104.18      115.63      123.81      128.88      131.52    
  133.25      133.25      132.87      131.52      128.25      122.13      112.62      99.848      84.688      68.546    
  53.005      39.414      28.586      20.685      15.311      11.717      9.2362      7.5863      6.5473      5.9478    
  5.6754      5.6754      5.9478      6.5473      7.5863      9.2362      11.717      15.311      20.685      28.586    
  39.414      53.005      68.546      84.688      99.848      112.62      122.13      128.25      131.52      132.87    
  133.25      132.87      131.52      128.25      122.13      112.62      99.848      84.688      68.546      53.005    
  39.414      28.586      20.685      15.311      11.717      9.2362      7.5863      6.5473      5.9478      5.6754    
  5.6754      5.9478      6.5473      7.5863      9.2362      11.717      15.311      20.685      28.586      39.414    
  53.005      68.546      84.688      99.848      112.62      122.13      128.25      131.52      132.87      133.25    
  132.87      131.88      129.38      124.45      116.39      105.03      90.908      75.187      59.379      44.946    
  32.946      23.828      17.435      13.160      10.233      8.2374      6.9435      6.1570      5.7391      5.6087    
  5.7391      6.1570      6.9435      8.2374      10.233      13.160      17.435      23.828      32.946      44.946    
  59.379      75.187      90.908      105.03      116.39      124.45      129.38      131.88      132.87      133.10    
  131.52      129.38      125.17      118.18      108.06      95.066      80.101      64.506      49.730      36.966    
  26.892      19.586      14.615      11.253      8.9197      7.3673      6.3881      5.8219      5.5643      5.5643    
  5.8219      6.3881      7.3673      8.9197      11.253      14.615      19.586      26.892      36.966      49.730    
  64.506      80.101      95.066      108.06      118.18      125.17      129.38      131.52      132.35      132.35    
  128.25      124.45      118.18      109.05      97.134      83.100      68.074      53.402      40.310      29.620    
  21.606      16.017      12.238      9.5997      7.8012      6.6325      5.9197      5.5396      5.4207      5.5396    
  5.9197      6.6325      7.8012      9.5997      12.238      16.017      21.606      29.620      40.310      53.402    
  68.074      83.100      97.134      109.05      118.18      124.45      128.25      130.17      130.75      130.17    
  122.13      116.39      108.06      97.134      84.105      69.898      55.704      42.700      31.768      23.321    
  17.269      13.127      10.237      8.2219      6.8782      6.0264      5.5312      5.3047      5.3047      5.5312    
  6.0264      6.8782      8.2219      10.237      13.127      17.269      23.321      31.768      42.700      55.704    
  69.898      84.105      97.134      108.06      116.39      122.13      125.59      127.17      127.17      125.59    
  112.62      105.03      95.066      83.100      69.898      56.488      43.944      33.141      24.568      18.262    
  13.867      10.790      8.6033      7.1104      6.1347      5.5348      5.2125      5.1112      5.2125      5.5348    
  6.1347      7.1104      8.6033      10.790      13.867      18.262      24.568      33.141      43.944      56.488    
  69.898      83.100      95.066      105.03      112.62      117.79      120.75      121.70      120.75      117.79    
  99.848      90.908      80.101      68.074      55.704      43.944      33.612      25.224      18.902      14.400    
  11.218      8.9186      7.3133      6.2360      5.5462      5.1406      4.9535      4.9535      5.1406      5.5462    
  6.2360      7.3133      8.9186      11.218      14.400      18.902      25.224      33.612      43.944      55.704    
  68.074      80.101      90.908      99.848      106.57      111.00      113.18      113.18      111.00      106.57    
  84.688      75.187      64.506      53.402      42.700      33.141      25.224      19.123      14.680      11.489    
  9.1440      7.4715      6.3216      5.5608      5.0860      4.8275      4.7456      4.8275      5.0860      5.5608    
  6.3216      7.4715      9.1440      11.489      14.680      19.123      25.224      33.141      42.700      53.402    
  64.506      75.187      84.688      92.442      98.107      101.53      102.67      101.53      98.107      92.442    
  68.546      59.379      49.730      40.310      31.768      24.568      18.902      14.680      11.582      9.2615    
  7.5721      6.3837      5.5746      5.0468      4.7307      4.5830      4.5830      4.7307      5.0468      5.5746    
  6.3837      7.5721      9.2615      11.582      14.680      18.902      24.568      31.768      40.310      49.730    
  59.379      68.546      76.578      82.967      87.377      89.620      89.620      87.377      82.967      76.578    
  53.005      44.946      36.966      29.620      23.321      18.262      14.400      11.489      9.2615      7.6066    
  6.4164      5.5843      5.0214      4.6619      4.4622      4.3982      4.4622      4.6619      5.0214      5.5843    
  6.4164      7.6066      9.2615      11.489      14.400      18.262      23.321      29.620      36.966      44.946    
  53.005      60.536      66.980      71.888      74.951      75.991      74.951      71.888      66.980      60.536    
  39.414      32.946      26.892      21.606      17.269      13.867      11.218      9.1440      7.5721      6.4164    
  5.5878      5.0090      4.6205      4.3818      4.2681      4.2681      4.3818      4.6205      5.0090      5.5878    
  6.4164      7.5721      9.1440      11.218      13.867      17.269      21.606      26.892      32.946      39.414    
  45.830      51.691      56.530      59.971      61.756      61.756      59.971      56.530      51.691      45.830    
  28.586      23.828      19.586      16.017      13.127      10.790      8.9186      7.4715      6.3837      5.5843    
  5.0090      4.6067      4.3416      4.1906      4.1416      4.1906      4.3416      4.6067      5.0090      5.5843    
  6.3838      7.4715      8.9186      10.790      13.127      16.017      19.586      23.828      28.586      33.569    
  38.399      42.674      46.024      48.157      48.889      48.157      46.024      42.674      38.399      33.569    
  20.685      17.435      14.615      12.238      10.237      8.6033      7.3133      6.3216      5.5746      5.0214    
  4.6205      4.3416      4.1648      4.0789      4.0789      4.1648      4.3416      4.6205      5.0214      5.5746    
  6.3216      7.3133      8.6033      10.237      12.238      14.615      17.435      20.685      24.237      27.863    
  31.273      34.163      36.260      37.362      37.362      36.260      34.163      31.273      27.863      24.237    
  15.311      13.160      11.253      9.5997      8.2219      7.1104      6.2360      5.5608      5.0468      4.6619    
  4.3818      4.1906      4.0789      4.0421      4.0789      4.1906      4.3818      4.6619      5.0468      5.5608    
  6.2360      7.1104      8.2219      9.5997      11.253      13.160      15.311      17.691      20.205      22.687    
  24.928      26.716      27.870      28.269      27.870      26.716      24.928      22.687      20.205      17.691    
  11.717      10.233      8.9197      7.8012      6.8782      6.1347      5.5462      5.0860      4.7307      4.4622    
  4.2681      4.1416      4.0789      4.0789      4.1416      4.2681      4.4622      4.7307      5.0860      5.5462    
  6.1347      6.8782      7.8012      8.9197      10.233      11.717      13.321      15.002      16.696      18.293    
  19.659      20.660      21.189      21.189      20.660      19.659      18.293      16.696      15.002      13.321    
  9.2362      8.2374      7.3673      6.6325      6.0264      5.5348      5.1406      4.8275      4.5830      4.3982    
  4.2681      4.1906      4.1648      4.1906      4.2681      4.3982      4.5830      4.8275      5.1406      5.5348    
  6.0264      6.6325      7.3673      8.2374      9.2362      10.340      11.505      12.673      13.778      14.757    
  15.533      16.033      16.206      16.033      15.533      14.757      13.778      12.673      11.505      10.340    
  7.5863      6.9435      6.3881      5.9197      5.5312      5.2125      4.9535      4.7456      4.5830      4.4622    
  4.3818      4.3416      4.3416      4.3818      4.4622      4.5830      4.7456      4.9535      5.2125      5.5312    
  5.9197      6.3881      6.9435      7.5863      8.3076      9.0862      9.8886      10.671      11.382      11.970    
  12.392      12.612      12.612      12.392      11.970      11.382      10.671      9.8886      9.0862      8.3076    
  6.5473      6.1570      5.8219      5.5396      5.3047      5.1112      4.9535      4.8275      4.7307      4.6619    
  4.6205      4.6067      4.6205      4.6619      4.7307      4.8275      4.9535      5.1112      5.3047      5.5396    
  5.8219      6.1570      6.5473      6.9905      7.4774      7.9910      8.5069      8.9946      9.4206      9.7528    
  9.9641      10.037      9.9641      9.7528      9.4206      8.9946      8.5069      7.9910      7.4773      6.9905    
  5.9478      5.7391      5.5643      5.4207      5.3047      5.2125      5.1406      5.0860      5.0468      5.0214    
  5.0090      5.0090      5.0214      5.0468      5.0860      5.1406      5.2125      5.3047      5.4207      5.5643    
  5.7391      5.9478      6.1904      6.4636      6.7598      7.0666      7.3674      7.6428      7.8722      8.0373    
  8.1237      8.1237      8.0373      7.8722      7.6427      7.3674      7.0666      6.7598      6.4636      6.1904    
  5.6754      5.6087      5.5643      5.5396      5.5312      5.5348      5.5462      5.5608      5.5746      5.5843    
  5.5878      5.5843      5.5746      5.5608      5.5462      5.5348      5.5312      5.5396      5.5643      5.6087    
  5.6754      5.7655      5.8782      6.0103      6.1561      6.3073      6.4538      6.5841      6.6870      6.7531    
  6.7758      6.7531      6.6870      6.5841      6.4538      6.3073      6.1561      6.0103      5.8782      5.7655    
  5.6754      5.7391      5.8219      5.9197      6.0264      6.1347      6.2360      6.3216      6.3837      6.4164    
  6.4164      6.3838      6.3216      6.2360      6.1347      6.0264      5.9197      5.8219      5.7391      5.6754    
  5.6329      5.6120      5.6114      5.6281      5.6580      5.6960      5.7365      5.7734      5.8014      5.8166    
  5.8166      5.8014      5.7734      5.7365      5.6960      5.6580      5.6281      5.6114      5.6121      5.6329    
  5.9478      6.1570      6.3881      6.6325      6.8782      7.1104      7.3133      7.4715      7.5721      7.6066    