   1   1   1   0
  0.1523942E+02  0.2782880E-09  0.2782880E-09  0.2782880E-09  0.5000000E-15
  1.000000000000000E-004
  CAR 
 Pt-fcc                                  
     69.60119232    -46.36203928  301     11.87944189      1.00000000
    -46.362  0.0000E+00  0.0000E+00
    -45.975  0.0000E+00  0.0000E+00
    -45.589  0.0000E+00  0.0000E+00
    -45.202  0.0000E+00  0.0000E+00
    -44.816  0.0000E+00  0.0000E+00
    -44.429  0.0000E+00  0.0000E+00
    -44.043  0.0000E+00  0.0000E+00
    -43.656  0.0000E+00  0.0000E+00
    -43.270  0.0000E+00  0.0000E+00
    -42.883  0.0000E+00  0.0000E+00
    -42.497  0.0000E+00  0.0000E+00
    -42.110  0.0000E+00  0.0000E+00
    -41.724  0.0000E+00  0.0000E+00
    -41.337  0.7296E-15  0.2820E-15
    -40.950  0.3820E-01  0.1477E-01
    -40.564  0.1139E+00  0.5999E-01
    -40.177  0.0000E+00  0.6000E-01
    -39.791  0.0000E+00  0.6000E-01
    -39.404  0.0000E+00  0.6000E-01
    -39.018  0.0000E+00  0.6000E-01
    -38.631  0.0000E+00  0.6000E-01
    -38.245  0.0000E+00  0.6000E-01
    -37.858  0.0000E+00  0.6000E-01
    -37.472  0.0000E+00  0.6000E-01
    -37.085  0.0000E+00  0.6000E-01
    -36.698  0.0000E+00  0.6000E-01
    -36.312  0.0000E+00  0.6000E-01
    -35.925  0.0000E+00  0.6000E-01
    -35.539  0.0000E+00  0.6000E-01
    -35.152  0.0000E+00  0.6000E-01
    -34.766  0.0000E+00  0.6000E-01
    -34.379  0.0000E+00  0.6000E-01
    -33.993  0.0000E+00  0.6000E-01
    -33.606  0.0000E+00  0.6000E-01
    -33.220  0.0000E+00  0.6000E-01
    -32.833  0.0000E+00  0.6000E-01
    -32.446  0.0000E+00  0.6000E-01
    -32.060  0.0000E+00  0.6000E-01
    -31.673  0.0000E+00  0.6000E-01
    -31.287  0.0000E+00  0.6000E-01
    -30.900  0.0000E+00  0.6000E-01
    -30.514  0.0000E+00  0.6000E-01
    -30.127  0.0000E+00  0.6000E-01
    -29.741  0.0000E+00  0.6000E-01
    -29.354  0.0000E+00  0.6000E-01
    -28.968  0.0000E+00  0.6000E-01
    -28.581  0.0000E+00  0.6000E-01
    -28.194  0.0000E+00  0.6000E-01
    -27.808  0.0000E+00  0.6000E-01
    -27.421  0.0000E+00  0.6000E-01
    -27.035  0.0000E+00  0.6000E-01
    -26.648  0.0000E+00  0.6000E-01
    -26.262  0.0000E+00  0.6000E-01
    -25.875  0.0000E+00  0.6000E-01
    -25.489  0.0000E+00  0.6000E-01
    -25.102  0.0000E+00  0.6000E-01
    -24.716  0.0000E+00  0.6000E-01
    -24.329  0.0000E+00  0.6000E-01
    -23.942  0.0000E+00  0.6000E-01
    -23.556  0.0000E+00  0.6000E-01
    -23.169  0.0000E+00  0.6000E-01
    -22.783  0.0000E+00  0.6000E-01
    -22.396  0.0000E+00  0.6000E-01
    -22.010  0.0000E+00  0.6000E-01
    -21.623  0.0000E+00  0.6000E-01
    -21.237  0.0000E+00  0.6000E-01
    -20.850  0.0000E+00  0.6000E-01
    -20.464  0.0000E+00  0.6000E-01
    -20.077  0.0000E+00  0.6000E-01
    -19.690  0.0000E+00  0.6000E-01
    -19.304  0.0000E+00  0.6000E-01
    -18.917  0.0000E+00  0.6000E-01
    -18.531  0.0000E+00  0.6000E-01
    -18.144  0.0000E+00  0.6000E-01
    -17.758  0.0000E+00  0.6000E-01
    -17.371  0.0000E+00  0.6000E-01
    -16.985  0.0000E+00  0.6000E-01
    -16.598  0.0000E+00  0.6000E-01
    -16.212  0.0000E+00  0.6000E-01
    -15.825  0.0000E+00  0.6000E-01
    -15.439  0.0000E+00  0.6000E-01
    -15.052  0.0000E+00  0.6000E-01
    -14.665  0.0000E+00  0.6000E-01
    -14.279  0.0000E+00  0.6000E-01
    -13.892  0.0000E+00  0.6000E-01
    -13.506  0.0000E+00  0.6000E-01
    -13.119  0.0000E+00  0.6000E-01
    -12.733  0.0000E+00  0.6000E-01
    -12.346  0.0000E+00  0.6000E-01
    -11.960  0.0000E+00  0.6000E-01
    -11.573  0.0000E+00  0.6000E-01
    -11.187  0.0000E+00  0.6000E-01
    -10.800  0.0000E+00  0.6000E-01
    -10.413  0.0000E+00  0.6000E-01
    -10.027  0.0000E+00  0.6000E-01
     -9.640  0.0000E+00  0.6000E-01
     -9.254  0.0000E+00  0.6000E-01
     -8.867  0.0000E+00  0.6000E-01
     -8.481  0.0000E+00  0.6000E-01
     -8.094  0.0000E+00  0.6000E-01
     -7.708  0.0000E+00  0.6000E-01
     -7.321  0.0000E+00  0.6000E-01
     -6.935  0.0000E+00  0.6000E-01
     -6.548  0.0000E+00  0.6000E-01
     -6.161  0.0000E+00  0.6000E-01
     -5.775  0.0000E+00  0.6000E-01
     -5.388  0.0000E+00  0.6000E-01
     -5.002  0.0000E+00  0.6000E-01
     -4.615  0.0000E+00  0.6000E-01
     -4.229  0.0000E+00  0.6000E-01
     -3.842  0.0000E+00  0.6000E-01
     -3.456  0.0000E+00  0.6000E-01
     -3.069  0.0000E+00  0.6000E-01
     -2.683  0.0000E+00  0.6000E-01
     -2.296  0.0000E+00  0.6000E-01
     -1.909  0.0000E+00  0.6000E-01
     -1.523  0.0000E+00  0.6000E-01
     -1.136  0.0000E+00  0.6000E-01
     -0.750  0.0000E+00  0.6000E-01
     -0.363  0.0000E+00  0.6000E-01
      0.023  0.0000E+00  0.6000E-01
      0.410  0.0000E+00  0.6000E-01
      0.796  0.0000E+00  0.6000E-01
      1.183  0.0000E+00  0.6000E-01
      1.569  0.2428E-16  0.6000E-01
      1.956  0.1035E-03  0.6004E-01
      2.343  0.4619E-03  0.6022E-01
      2.729  0.5737E-03  0.6044E-01
      3.116  0.9224E-03  0.6080E-01
      3.502  0.1079E-02  0.6122E-01
      3.889  0.9666E-03  0.6160E-01
      4.275  0.1826E-02  0.6231E-01
      4.662  0.2989E-02  0.6346E-01
      5.048  0.5589E-02  0.6563E-01
      5.435  0.1007E-01  0.6959E-01
      5.821  0.1381E-01  0.7504E-01
      6.208  0.1312E-01  0.8022E-01
      6.595  0.1136E-01  0.8469E-01
      6.981  0.1117E-01  0.8904E-01
      7.368  0.1373E-01  0.9440E-01
      7.754  0.1319E-01  0.9967E-01
      8.141  0.1727E-01  0.1064E+00
      8.527  0.2039E-01  0.1146E+00
      8.914  0.1594E-01  0.1209E+00
      9.300  0.1176E-01  0.1255E+00
      9.687  0.1216E-01  0.1304E+00
     10.073  0.1591E-01  0.1366E+00
     10.460  0.1248E-01  0.1416E+00
     10.846  0.8621E-02  0.1451E+00
     11.233  0.1256E-01  0.1501E+00
     11.620  0.1438E-01  0.1557E+00
     12.006  0.1774E-01  0.1627E+00
     12.393  0.8900E-02  0.1663E+00
     12.779  0.1585E-02  0.1669E+00
     13.166  0.4623E-02  0.1687E+00
     13.552  0.1253E-02  0.1692E+00
     13.939  0.3215E-02  0.1704E+00
     14.325  0.3347E-02  0.1717E+00
     14.712  0.2476E-02  0.1728E+00
     15.098  0.1277E-02  0.1733E+00
     15.485  0.3699E-02  0.1747E+00
     15.872  0.2223E-02  0.1756E+00
     16.258  0.2695E-02  0.1766E+00
     16.645  0.1939E-02  0.1775E+00
     17.031  0.1725E-02  0.1782E+00
     17.418  0.2746E-02  0.1793E+00
     17.804  0.4074E-02  0.1809E+00
     18.191  0.2574E-02  0.1819E+00
     18.577  0.3484E-02  0.1833E+00
     18.964  0.2796E-02  0.1843E+00
     19.350  0.3383E-02  0.1857E+00
     19.737  0.4008E-02  0.1872E+00
     20.124  0.1355E-02  0.1878E+00
     20.510  0.3692E-02  0.1892E+00
     20.897  0.3874E-02  0.1907E+00
     21.283  0.1254E-02  0.1912E+00
     21.670  0.2516E-02  0.1922E+00
     22.056  0.4940E-02  0.1941E+00
     22.443  0.3873E-02  0.1957E+00
     22.829  0.1918E-02  0.1964E+00
     23.216  0.5601E-02  0.1986E+00
     23.602  0.1689E-02  0.1994E+00
     23.989  0.5173E-02  0.2014E+00
     24.376  0.4947E-02  0.2034E+00
     24.762  0.4239E-02  0.2050E+00
     25.149  0.4992E-02  0.2070E+00
     25.535  0.4393E-02  0.2087E+00
     25.922  0.6204E-02  0.2111E+00
     26.308  0.4042E-02  0.2128E+00
     26.695  0.8321E-02  0.2161E+00
     27.081  0.5956E-02  0.2184E+00
     27.468  0.8860E-02  0.2219E+00
     27.854  0.6060E-02  0.2243E+00
     28.241  0.6521E-02  0.2269E+00
     28.628  0.5368E-02  0.2291E+00
     29.014  0.7425E-02  0.2321E+00
     29.401  0.4606E-02  0.2339E+00
     29.787  0.2834E-02  0.2351E+00
     30.174  0.2393E-02  0.2361E+00
     30.560  0.5599E-02  0.2382E+00
     30.947  0.5596E-02  0.2405E+00
     31.333  0.6107E-02  0.2428E+00
     31.720  0.9156E-02  0.2465E+00
     32.106  0.6384E-02  0.2490E+00
     32.493  0.6523E-02  0.2516E+00
     32.880  0.7496E-02  0.2545E+00
     33.266  0.5406E-02  0.2566E+00
     33.653  0.4169E-02  0.2583E+00
     34.039  0.2980E-02  0.2595E+00
     34.426  0.3016E-02  0.2606E+00
     34.812  0.4700E-02  0.2624E+00
     35.199  0.3533E-02  0.2638E+00
     35.585  0.5177E-02  0.2659E+00
     35.972  0.4132E-02  0.2675E+00
     36.358  0.3671E-02  0.2690E+00
     36.745  0.8798E-02  0.2724E+00
     37.131  0.5138E-02  0.2744E+00
     37.518  0.5640E-02  0.2766E+00
     37.905  0.2789E-02  0.2778E+00
     38.291  0.5971E-02  0.2801E+00
     38.678  0.9609E-02  0.2838E+00
     39.064  0.5367E-02  0.2860E+00
     39.451  0.1354E-01  0.2913E+00
     39.837  0.1110E-01  0.2957E+00
     40.224  0.1095E-01  0.3000E+00
     40.610  0.8644E-02  0.3035E+00
     40.997  0.7418E-02  0.3064E+00
     41.383  0.7631E-02  0.3094E+00
     41.770  0.3704E-02  0.3109E+00
     42.157  0.3983E-02  0.3125E+00
     42.543  0.9396E-02  0.3161E+00
     42.930  0.7581E-02  0.3191E+00
     43.316  0.9710E-02  0.3229E+00
     43.703  0.8007E-02  0.3260E+00
     44.089  0.6131E-02  0.3285E+00
     44.476  0.6101E-02  0.3309E+00
     44.862  0.9189E-02  0.3344E+00
     45.249  0.3633E-02  0.3359E+00
     45.635  0.4591E-02  0.3377E+00
     46.022  0.6529E-02  0.3403E+00
     46.409  0.6188E-02  0.3427E+00
     46.795  0.8527E-02  0.3461E+00
     47.182  0.6267E-02  0.3485E+00
     47.568  0.7840E-02  0.3517E+00
     47.955  0.1372E-01  0.3571E+00
     48.341  0.9065E-02  0.3607E+00
     48.728  0.1250E-01  0.3655E+00
     49.114  0.8131E-02  0.3687E+00
     49.501  0.1111E-01  0.3731E+00
     49.887  0.8583E-02  0.3766E+00
     50.274  0.7516E-02  0.3796E+00
     50.661  0.8923E-02  0.3831E+00
     51.047  0.5014E-02  0.3851E+00
     51.434  0.6017E-02  0.3874E+00
     51.820  0.7739E-02  0.3904E+00
     52.207  0.8322E-02  0.3937E+00
     52.593  0.4705E-01  0.4120E+00
     52.980  0.7224E-02  0.4198E+00
     53.366  0.9164E-02  0.4234E+00
     53.753  0.9444E-02  0.4271E+00
     54.139  0.6969E-02  0.4298E+00
     54.526  0.9541E-02  0.4335E+00
     54.913  0.5028E-02  0.4356E+00
     55.299  0.9347E-02  0.4392E+00
     55.686  0.7088E-02  0.4421E+00
     56.072  0.8276E-02  0.4454E+00
     56.459  0.9534E-02  0.4492E+00
     56.845  0.8122E-02  0.4526E+00
     57.232  0.7703E-02  0.4556E+00
     57.618  0.9655E-02  0.4594E+00
     58.005  0.6338E-02  0.4619E+00
     58.391  0.9077E-02  0.4655E+00
     58.778  0.6512E-02  0.4680E+00
     59.165  0.5151E-02  0.4701E+00
     59.551  0.7329E-02  0.4730E+00
     59.938  0.3614E-02  0.4745E+00
     60.324  0.3811E-02  0.4760E+00
     60.711  0.1829E-02  0.4767E+00
     61.097  0.1897E-02  0.4774E+00
     61.484  0.2560E-02  0.4784E+00
     61.870  0.1580E-02  0.4790E+00
     62.257  0.4206E-03  0.4792E+00
     62.643  0.1130E-02  0.4796E+00
     63.030  0.2240E-18  0.4796E+00
     63.416  0.5699E-03  0.4799E+00
     63.803  0.0000E+00  0.4799E+00
     64.190  0.1089E-07  0.4799E+00
     64.576  0.3104E-03  0.4800E+00
     64.963  0.0000E+00  0.4800E+00
     65.349  0.0000E+00  0.4800E+00
     65.736  0.0000E+00  0.4800E+00
     66.122  0.0000E+00  0.4800E+00
     66.509  0.0000E+00  0.4800E+00
     66.895  0.0000E+00  0.4800E+00
     67.282  0.0000E+00  0.4800E+00
     67.668  0.0000E+00  0.4800E+00
     68.055  0.0000E+00  0.4800E+00
     68.442  0.0000E+00  0.4800E+00
     68.828  0.0000E+00  0.4800E+00
     69.215  0.0000E+00  0.4800E+00
     69.601  0.0000E+00  0.4800E+00
     69.60119232    -46.36203928  301     11.87944189      1.00000000
    -46.362  0.0000E+00  0.0000E+00  0.0000E+00  0.0000E+00  0.0000E+00  0.0000E+00  0.0000E+00  0.0000E+00  0.0000E+00
    -45.975  0.0000E+00  0.0000E+00  0.0000E+00  0.0000E+00  0.0000E+00  0.0000E+00  0.0000E+00  0.0000E+00  0.0000E+00
    -45.589  0.0000E+00  0.0000E+00  0.0000E+00  0.0000E+00  0.0000E+00  0.0000E+00  0.0000E+00  0.0000E+00  0.0000E+00
    -45.202  0.0000E+00  0.0000E+00  0.0000E+00  0.0000E+00  0.0000E+00  0.0000E+00  0.0000E+00  0.0000E+00  0.0000E+00
    -44.816  0.0000E+00  0.0000E+00  0.0000E+00  0.0000E+00  0.0000E+00  0.0000E+00  0.0000E+00  0.0000E+00  0.0000E+00
    -44.429  0.0000E+00  0.0000E+00  0.0000E+00  0.0000E+00  0.0000E+00  0.0000E+00  0.0000E+00  0.0000E+00  0.0000E+00
    -44.043  0.0000E+00  0.0000E+00  0.0000E+00  0.0000E+00  0.0000E+00  0.0000E+00  0.0000E+00  0.0000E+00  0.0000E+00
    -43.656  0.0000E+00  0.0000E+00  0.0000E+00  0.0000E+00  0.0000E+00  0.0000E+00  0.0000E+00  0.0000E+00  0.0000E+00
    -43.270  0.0000E+00  0.0000E+00  0.0000E+00  0.0000E+00  0.0000E+00  0.0000E+00  0.0000E+00  0.0000E+00  0.0000E+00
    -42.883  0.0000E+00  0.0000E+00  0.0000E+00  0.0000E+00  0.0000E+00  0.0000E+00  0.0000E+00  0.0000E+00  0.0000E+00
    -42.497  0.0000E+00  0.0000E+00  0.0000E+00  0.0000E+00  0.0000E+00  0.0000E+00  0.0000E+00  0.0000E+00  0.0000E+00
    -42.110  0.0000E+00  0.0000E+00  0.0000E+00  0.0000E+00  0.0000E+00  0.0000E+00  0.0000E+00  0.0000E+00  0.0000E+00
    -41.724  0.0000E+00  0.0000E+00  0.0000E+00  0.0000E+00  0.0000E+00  0.0000E+00  0.0000E+00  0.0000E+00  0.0000E+00
    -41.337  0.1786E-18  0.2388E-13  0.2388E-13  0.2388E-13  0.8676E-19  0.8676E-19  0.6727E-19  0.8676E-19  0.6727E-19
    -40.950  0.1095E-03  0.1254E+01  0.1254E+01  0.1254E+01  0.3312E-04  0.3312E-04  0.1501E-04  0.3312E-04  0.1501E-04
    -40.564  0.1451E-03  0.3767E+01  0.3767E+01  0.3767E+01  0.1058E-03  0.1058E-03  0.5840E-04  0.1058E-03  0.5840E-04
    -40.177  0.0000E+00  0.0000E+00  0.0000E+00  0.0000E+00  0.0000E+00  0.0000E+00  0.0000E+00  0.0000E+00  0.0000E+00
    -39.791  0.0000E+00  0.0000E+00  0.0000E+00  0.0000E+00  0.0000E+00  0.0000E+00  0.0000E+00  0.0000E+00  0.0000E+00
    -39.404  0.0000E+00  0.0000E+00  0.0000E+00  0.0000E+00  0.0000E+00  0.0000E+00  0.0000E+00  0.0000E+00  0.0000E+00
    -39.018  0.0000E+00  0.0000E+00  0.0000E+00  0.0000E+00  0.0000E+00  0.0000E+00  0.0000E+00  0.0000E+00  0.0000E+00
    -38.631  0.0000E+00  0.0000E+00  0.0000E+00  0.0000E+00  0.0000E+00  0.0000E+00  0.0000E+00  0.0000E+00  0.0000E+00
    -38.245  0.0000E+00  0.0000E+00  0.0000E+00  0.0000E+00  0.0000E+00  0.0000E+00  0.0000E+00  0.0000E+00  0.0000E+00
    -37.858  0.0000E+00  0.0000E+00  0.0000E+00  0.0000E+00  0.0000E+00  0.0000E+00  0.0000E+00  0.0000E+00  0.0000E+00
    -37.472  0.0000E+00  0.0000E+00  0.0000E+00  0.0000E+00  0.0000E+00  0.0000E+00  0.0000E+00  0.0000E+00  0.0000E+00
    -37.085  0.0000E+00  0.0000E+00  0.0000E+00  0.0000E+00  0.0000E+00  0.0000E+00  0.0000E+00  0.0000E+00  0.0000E+00
    -36.698  0.0000E+00  0.0000E+00  0.0000E+00  0.0000E+00  0.0000E+00  0.0000E+00  0.0000E+00  0.0000E+00  0.0000E+00
    -36.312  0.0000E+00  0.0000E+00  0.0000E+00  0.0000E+00  0.0000E+00  0.0000E+00  0.0000E+00  0.0000E+00  0.0000E+00
    -35.925  0.0000E+00  0.0000E+00  0.0000E+00  0.0000E+00  0.0000E+00  0.0000E+00  0.0000E+00  0.0000E+00  0.0000E+00
    -35.539  0.0000E+00  0.0000E+00  0.0000E+00  0.0000E+00  0.0000E+00  0.0000E+00  0.0000E+00  0.0000E+00  0.0000E+00
    -35.152  0.0000E+00  0.0000E+00  0.0000E+00  0.0000E+00  0.0000E+00  0.0000E+00  0.0000E+00  0.0000E+00  0.0000E+00
    -34.766  0.0000E+00  0.0000E+00  0.0000E+00  0.0000E+00  0.0000E+00  0.0000E+00  0.0000E+00  0.0000E+00  0.0000E+00
    -34.379  0.0000E+00  0.0000E+00  0.0000E+00  0.0000E+00  0.0000E+00  0.0000E+00  0.0000E+00  0.0000E+00  0.0000E+00
    -33.993  0.0000E+00  0.0000E+00  0.0000E+00  0.0000E+00  0.0000E+00  0.0000E+00  0.0000E+00  0.0000E+00  0.0000E+00
    -33.606  0.0000E+00  0.0000E+00  0.0000E+00  0.0000E+00  0.0000E+00  0.0000E+00  0.0000E+00  0.0000E+00  0.0000E+00
    -33.220  0.0000E+00  0.0000E+00  0.0000E+00  0.0000E+00  0.0000E+00  0.0000E+00  0.0000E+00  0.0000E+00  0.0000E+00
    -32.833  0.0000E+00  0.0000E+00  0.0000E+00  0.0000E+00  0.0000E+00  0.0000E+00  0.0000E+00  0.0000E+00  0.0000E+00
    -32.446  0.0000E+00  0.0000E+00  0.0000E+00  0.0000E+00  0.0000E+00  0.0000E+00  0.0000E+00  0.0000E+00  0.0000E+00
    -32.060  0.0000E+00  0.0000E+00  0.0000E+00  0.0000E+00  0.0000E+00  0.0000E+00  0.0000E+00  0.0000E+00  0.0000E+00
    -31.673  0.0000E+00  0.0000E+00  0.0000E+00  0.0000E+00  0.0000E+00  0.0000E+00  0.0000E+00  0.0000E+00  0.0000E+00
    -31.287  0.0000E+00  0.0000E+00  0.0000E+00  0.0000E+00  0.0000E+00  0.0000E+00  0.0000E+00  0.0000E+00  0.0000E+00
    -30.900  0.0000E+00  0.0000E+00  0.0000E+00  0.0000E+00  0.0000E+00  0.0000E+00  0.0000E+00  0.0000E+00  0.0000E+00
    -30.514  0.0000E+00  0.0000E+00  0.0000E+00  0.0000E+00  0.0000E+00  0.0000E+00  0.0000E+00  0.0000E+00  0.0000E+00
    -30.127  0.0000E+00  0.0000E+00  0.0000E+00  0.0000E+00  0.0000E+00  0.0000E+00  0.0000E+00  0.0000E+00  0.0000E+00
    -29.741  0.0000E+00  0.0000E+00  0.0000E+00  0.0000E+00  0.0000E+00  0.0000E+00  0.0000E+00  0.0000E+00  0.0000E+00
    -29.354  0.0000E+00  0.0000E+00  0.0000E+00  0.0000E+00  0.0000E+00  0.0000E+00  0.0000E+00  0.0000E+00  0.0000E+00
    -28.968  0.0000E+00  0.0000E+00  0.0000E+00  0.0000E+00  0.0000E+00  0.0000E+00  0.0000E+00  0.0000E+00  0.0000E+00
    -28.581  0.0000E+00  0.0000E+00  0.0000E+00  0.0000E+00  0.0000E+00  0.0000E+00  0.0000E+00  0.0000E+00  0.0000E+00
    -28.194  0.0000E+00  0.0000E+00  0.0000E+00  0.0000E+00  0.0000E+00  0.0000E+00  0.0000E+00  0.0000E+00  0.0000E+00
    -27.808  0.0000E+00  0.0000E+00  0.0000E+00  0.0000E+00  0.0000E+00  0.0000E+00  0.0000E+00  0.0000E+00  0.0000E+00
    -27.421  0.0000E+00  0.0000E+00  0.0000E+00  0.0000E+00  0.0000E+00  0.0000E+00  0.0000E+00  0.0000E+00  0.0000E+00
    -27.035  0.0000E+00  0.0000E+00  0.0000E+00  0.0000E+00  0.0000E+00  0.0000E+00  0.0000E+00  0.0000E+00  0.0000E+00
    -26.648  0.0000E+00  0.0000E+00  0.0000E+00  0.0000E+00  0.0000E+00  0.0000E+00  0.0000E+00  0.0000E+00  0.0000E+00
    -26.262  0.0000E+00  0.0000E+00  0.0000E+00  0.0000E+00  0.0000E+00  0.0000E+00  0.0000E+00  0.0000E+00  0.0000E+00
    -25.875  0.0000E+00  0.0000E+00  0.0000E+00  0.0000E+00  0.0000E+00  0.0000E+00  0.0000E+00  0.0000E+00  0.0000E+00
    -25.489  0.0000E+00  0.0000E+00  0.0000E+00  0.0000E+00  0.0000E+00  0.0000E+00  0.0000E+00  0.0000E+00  0.0000E+00
    -25.102  0.0000E+00  0.0000E+00  0.0000E+00  0.0000E+00  0.0000E+00  0.0000E+00  0.0000E+00  0.0000E+00  0.0000E+00
    -24.716  0.0000E+00  0.0000E+00  0.0000E+00  0.0000E+00  0.0000E+00  0.0000E+00  0.0000E+00  0.0000E+00  0.0000E+00
    -24.329  0.0000E+00  0.0000E+00  0.0000E+00  0.0000E+00  0.0000E+00  0.0000E+00  0.0000E+00  0.0000E+00  0.0000E+00
    -23.942  0.0000E+00  0.0000E+00  0.0000E+00  0.0000E+00  0.0000E+00  0.0000E+00  0.0000E+00  0.0000E+00  0.0000E+00
    -23.556  0.0000E+00  0.0000E+00  0.0000E+00  0.0000E+00  0.0000E+00  0.0000E+00  0.0000E+00  0.0000E+00  0.0000E+00
    -23.169  0.0000E+00  0.0000E+00  0.0000E+00  0.0000E+00  0.0000E+00  0.0000E+00  0.0000E+00  0.0000E+00  0.0000E+00
    -22.783  0.0000E+00  0.0000E+00  0.0000E+00  0.0000E+00  0.0000E+00  0.0000E+00  0.0000E+00  0.0000E+00  0.0000E+00
    -22.396  0.0000E+00  0.0000E+00  0.0000E+00  0.0000E+00  0.0000E+00  0.0000E+00  0.0000E+00  0.0000E+00  0.0000E+00
    -22.010  0.0000E+00  0.0000E+00  0.0000E+00  0.0000E+00  0.0000E+00  0.0000E+00  0.0000E+00  0.0000E+00  0.0000E+00
    -21.623  0.0000E+00  0.0000E+00  0.0000E+00  0.0000E+00  0.0000E+00  0.0000E+00  0.0000E+00  0.0000E+00  0.0000E+00
    -21.237  0.0000E+00  0.0000E+00  0.0000E+00  0.0000E+00  0.0000E+00  0.0000E+00  0.0000E+00  0.0000E+00  0.0000E+00
    -20.850  0.0000E+00  0.0000E+00  0.0000E+00  0.0000E+00  0.0000E+00  0.0000E+00  0.0000E+00  0.0000E+00  0.0000E+00
    -20.464  0.0000E+00  0.0000E+00  0.0000E+00  0.0000E+00  0.0000E+00  0.0000E+00  0.0000E+00  0.0000E+00  0.0000E+00
    -20.077  0.0000E+00  0.0000E+00  0.0000E+00  0.0000E+00  0.0000E+00  0.0000E+00  0.0000E+00  0.0000E+00  0.0000E+00
    -19.690  0.0000E+00  0.0000E+00  0.0000E+00  0.0000E+00  0.0000E+00  0.0000E+00  0.0000E+00  0.0000E+00  0.0000E+00
    -19.304  0.0000E+00  0.0000E+00  0.0000E+00  0.0000E+00  0.0000E+00  0.0000E+00  0.0000E+00  0.0000E+00  0.0000E+00
    -18.917  0.0000E+00  0.0000E+00  0.0000E+00  0.0000E+00  0.0000E+00  0.0000E+00  0.0000E+00  0.0000E+00  0.0000E+00
    -18.531  0.0000E+00  0.0000E+00  0.0000E+00  0.0000E+00  0.0000E+00  0.0000E+00  0.0000E+00  0.0000E+00  0.0000E+00
    -18.144  0.0000E+00  0.0000E+00  0.0000E+00  0.0000E+00  0.0000E+00  0.0000E+00  0.0000E+00  0.0000E+00  0.0000E+00
    -17.758  0.0000E+00  0.0000E+00  0.0000E+00  0.0000E+00  0.0000E+00  0.0000E+00  0.0000E+00  0.0000E+00  0.0000E+00
    -17.371  0.0000E+00  0.0000E+00  0.0000E+00  0.0000E+00  0.0000E+00  0.0000E+00  0.0000E+00  0.0000E+00  0.0000E+00
    -16.985  0.0000E+00  0.0000E+00  0.0000E+00  0.0000E+00  0.0000E+00  0.0000E+00  0.0000E+00  0.0000E+00  0.0000E+00
    -16.598  0.0000E+00  0.0000E+00  0.0000E+00  0.0000E+00  0.0000E+00  0.0000E+00  0.0000E+00  0.0000E+00  0.0000E+00
    -16.212  0.0000E+00  0.0000E+00  0.0000E+00  0.0000E+00  0.0000E+00  0.0000E+00  0.0000E+00  0.0000E+00  0.0000E+00
    -15.825  0.0000E+00  0.0000E+00  0.0000E+00  0.0000E+00  0.0000E+00  0.0000E+00  0.0000E+00  0.0000E+00  0.0000E+00
    -15.439  0.0000E+00  0.0000E+00  0.0000E+00  0.0000E+00  0.0000E+00  0.0000E+00  0.0000E+00  0.0000E+00  0.0000E+00
    -15.052  0.0000E+00  0.0000E+00  0.0000E+00  0.0000E+00  0.0000E+00  0.0000E+00  0.0000E+00  0.0000E+00  0.0000E+00
    -14.665  0.0000E+00  0.0000E+00  0.0000E+00  0.0000E+00  0.0000E+00  0.0000E+00  0.0000E+00  0.0000E+00  0.0000E+00
    -14.279  0.0000E+00  0.0000E+00  0.0000E+00  0.0000E+00  0.0000E+00  0.0000E+00  0.0000E+00  0.0000E+00  0.0000E+00
    -13.892  0.0000E+00  0.0000E+00  0.0000E+00  0.0000E+00  0.0000E+00  0.0000E+00  0.0000E+00  0.0000E+00  0.0000E+00
    -13.506  0.0000E+00  0.0000E+00  0.0000E+00  0.0000E+00  0.0000E+00  0.0000E+00  0.0000E+00  0.0000E+00  0.0000E+00
    -13.119  0.0000E+00  0.0000E+00  0.0000E+00  0.0000E+00  0.0000E+00  0.0000E+00  0.0000E+00  0.0000E+00  0.0000E+00
    -12.733  0.0000E+00  0.0000E+00  0.0000E+00  0.0000E+00  0.0000E+00  0.0000E+00  0.0000E+00  0.0000E+00  0.0000E+00
    -12.346  0.0000E+00  0.0000E+00  0.0000E+00  0.0000E+00  0.0000E+00  0.0000E+00  0.0000E+00  0.0000E+00  0.0000E+00
    -11.960  0.0000E+00  0.0000E+00  0.0000E+00  0.0000E+00  0.0000E+00  0.0000E+00  0.0000E+00  0.0000E+00  0.0000E+00
    -11.573  0.0000E+00  0.0000E+00  0.0000E+00  0.0000E+00  0.0000E+00  0.0000E+00  0.0000E+00  0.0000E+00  0.0000E+00
    -11.187  0.0000E+00  0.0000E+00  0.0000E+00  0.0000E+00  0.0000E+00  0.0000E+00  0.0000E+00  0.0000E+00  0.0000E+00
    -10.800  0.0000E+00  0.0000E+00  0.0000E+00  0.0000E+00  0.0000E+00  0.0000E+00  0.0000E+00  0.0000E+00  0.0000E+00
    -10.413  0.0000E+00  0.0000E+00  0.0000E+00  0.0000E+00  0.0000E+00  0.0000E+00  0.0000E+00  0.0000E+00  0.0000E+00
    -10.027  0.0000E+00  0.0000E+00  0.0000E+00  0.0000E+00  0.0000E+00  0.0000E+00  0.0000E+00  0.0000E+00  0.0000E+00
     -9.640  0.0000E+00  0.0000E+00  0.0000E+00  0.0000E+00  0.0000E+00  0.0000E+00  0.0000E+00  0.0000E+00  0.0000E+00
     -9.254  0.0000E+00  0.0000E+00  0.0000E+00  0.0000E+00  0.0000E+00  0.0000E+00  0.0000E+00  0.0000E+00  0.0000E+00
     -8.867  0.0000E+00  0.0000E+00  0.0000E+00  0.0000E+00  0.0000E+00  0.0000E+00  0.0000E+00  0.0000E+00  0.0000E+00
     -8.481  0.0000E+00  0.0000E+00  0.0000E+00  0.0000E+00  0.0000E+00  0.0000E+00  0.0000E+00  0.0000E+00  0.0000E+00
     -8.094  0.0000E+00  0.0000E+00  0.0000E+00  0.0000E+00  0.0000E+00  0.0000E+00  0.0000E+00  0.0000E+00  0.0000E+00
     -7.708  0.0000E+00  0.0000E+00  0.0000E+00  0.0000E+00  0.0000E+00  0.0000E+00  0.0000E+00  0.0000E+00  0.0000E+00
     -7.321  0.0000E+00  0.0000E+00  0.0000E+00  0.0000E+00  0.0000E+00  0.0000E+00  0.0000E+00  0.0000E+00  0.0000E+00
     -6.935  0.0000E+00  0.0000E+00  0.0000E+00  0.0000E+00  0.0000E+00  0.0000E+00  0.0000E+00  0.0000E+00  0.0000E+00
     -6.548  0.0000E+00  0.0000E+00  0.0000E+00  0.0000E+00  0.0000E+00  0.0000E+00  0.0000E+00  0.0000E+00  0.0000E+00
     -6.161  0.0000E+00  0.0000E+00  0.0000E+00  0.0000E+00  0.0000E+00  0.0000E+00  0.0000E+00  0.0000E+00  0.0000E+00
     -5.775  0.0000E+00  0.0000E+00  0.0000E+00  0.0000E+00  0.0000E+00  0.0000E+00  0.0000E+00  0.0000E+00  0.0000E+00
     -5.388  0.0000E+00  0.0000E+00  0.0000E+00  0.0000E+00  0.0000E+00  0.0000E+00  0.0000E+00  0.0000E+00  0.0000E+00
     -5.002  0.0000E+00  0.0000E+00  0.0000E+00  0.0000E+00  0.0000E+00  0.0000E+00  0.0000E+00  0.0000E+00  0.0000E+00
     -4.615  0.0000E+00  0.0000E+00  0.0000E+00  0.0000E+00  0.0000E+00  0.0000E+00  0.0000E+00  0.0000E+00  0.0000E+00
     -4.229  0.0000E+00  0.0000E+00  0.0000E+00  0.0000E+00  0.0000E+00  0.0000E+00  0.0000E+00  0.0000E+00  0.0000E+00
     -3.842  0.0000E+00  0.0000E+00  0.0000E+00  0.0000E+00  0.0000E+00  0.0000E+00  0.0000E+00  0.0000E+00  0.0000E+00
     -3.456  0.0000E+00  0.0000E+00  0.0000E+00  0.0000E+00  0.0000E+00  0.0000E+00  0.0000E+00  0.0000E+00  0.0000E+00
     -3.069  0.0000E+00  0.0000E+00  0.0000E+00  0.0000E+00  0.0000E+00  0.0000E+00  0.0000E+00  0.0000E+00  0.0000E+00
     -2.683  0.0000E+00  0.0000E+00  0.0000E+00  0.0000E+00  0.0000E+00  0.0000E+00  0.0000E+00  0.0000E+00  0.0000E+00
     -2.296  0.0000E+00  0.0000E+00  0.0000E+00  0.0000E+00  0.0000E+00  0.0000E+00  0.0000E+00  0.0000E+00  0.0000E+00
     -1.909  0.0000E+00  0.0000E+00  0.0000E+00  0.0000E+00  0.0000E+00  0.0000E+00  0.0000E+00  0.0000E+00  0.0000E+00
     -1.523  0.0000E+00  0.0000E+00  0.0000E+00  0.0000E+00  0.0000E+00  0.0000E+00  0.0000E+00  0.0000E+00  0.0000E+00
     -1.136  0.0000E+00  0.0000E+00  0.0000E+00  0.0000E+00  0.0000E+00  0.0000E+00  0.0000E+00  0.0000E+00  0.0000E+00
     -0.750  0.0000E+00  0.0000E+00  0.0000E+00  0.0000E+00  0.0000E+00  0.0000E+00  0.0000E+00  0.0000E+00  0.0000E+00
     -0.363  0.0000E+00  0.0000E+00  0.0000E+00  0.0000E+00  0.0000E+00  0.0000E+00  0.0000E+00  0.0000E+00  0.0000E+00
      0.023  0.0000E+00  0.0000E+00  0.0000E+00  0.0000E+00  0.0000E+00  0.0000E+00  0.0000E+00  0.0000E+00  0.0000E+00
      0.410  0.0000E+00  0.0000E+00  0.0000E+00  0.0000E+00  0.0000E+00  0.0000E+00  0.0000E+00  0.0000E+00  0.0000E+00
      0.796  0.0000E+00  0.0000E+00  0.0000E+00  0.0000E+00  0.0000E+00  0.0000E+00  0.0000E+00  0.0000E+00  0.0000E+00
      1.183  0.0000E+00  0.0000E+00  0.0000E+00  0.0000E+00  0.0000E+00  0.0000E+00  0.0000E+00  0.0000E+00  0.0000E+00
      1.569  0.9602E-15  0.1079E-17  0.1079E-17  0.1079E-17  0.6334E-19  0.6334E-19  0.8651E-32  0.6334E-19  0.8651E-32
      1.956  0.4093E-02  0.4601E-05  0.4601E-05  0.4601E-05  0.2703E-06  0.2703E-06  0.3532E-09  0.2703E-06  0.3532E-09
      2.343  0.1790E-01  0.9011E-04  0.9011E-04  0.9011E-04  0.1919E-04  0.1919E-04  0.6223E-05  0.1919E-04  0.6223E-05
      2.729  0.2171E-01  0.1984E-03  0.1984E-03  0.1984E-03  0.5714E-04  0.5714E-04  0.4777E-04  0.5714E-04  0.4777E-04
      3.116  0.3387E-01  0.4513E-03  0.4513E-03  0.4513E-03  0.3501E-03  0.3501E-03  0.8246E-04  0.3501E-03  0.8246E-04
      3.502  0.3778E-01  0.7191E-03  0.7191E-03  0.7191E-03  0.7483E-03  0.7483E-03  0.3802E-03  0.7483E-03  0.3802E-03
      3.889  0.3270E-01  0.7232E-03  0.7232E-03  0.7232E-03  0.1078E-02  0.1078E-02  0.4526E-03  0.1078E-02  0.4526E-03
      4.275  0.5699E-01  0.1485E-02  0.1485E-02  0.1485E-02  0.4265E-02  0.4265E-02  0.1466E-02  0.4265E-02  0.1466E-02
      4.662  0.7927E-01  0.2325E-02  0.2325E-02  0.2325E-02  0.1570E-01  0.1570E-01  0.3134E-02  0.1570E-01  0.3134E-02
      5.048  0.1008E+00  0.2631E-02  0.2631E-02  0.2631E-02  0.5229E-01  0.5229E-01  0.2305E-01  0.5229E-01  0.2305E-01
      5.435  0.1299E+00  0.4845E-02  0.4845E-02  0.4845E-02  0.7587E-01  0.7587E-01  0.1106E+00  0.7587E-01  0.1106E+00
      5.821  0.1053E+00  0.5147E-02  0.5147E-02  0.5147E-02  0.1700E+00  0.1700E+00  0.1322E+00  0.1700E+00  0.1322E+00
      6.208  0.5464E-01  0.4848E-02  0.4848E-02  0.4848E-02  0.1967E+00  0.1967E+00  0.1190E+00  0.1967E+00  0.1190E+00
      6.595  0.2730E-01  0.5549E-02  0.5549E-02  0.5549E-02  0.1669E+00  0.1669E+00  0.1214E+00  0.1669E+00  0.1214E+00
      6.981  0.9113E-02  0.7383E-02  0.7383E-02  0.7383E-02  0.1561E+00  0.1561E+00  0.1390E+00  0.1561E+00  0.1390E+00
      7.368  0.9965E-02  0.8118E-02  0.8118E-02  0.8118E-02  0.2050E+00  0.2050E+00  0.1677E+00  0.2050E+00  0.1677E+00
      7.754  0.1421E-01  0.6956E-02  0.6956E-02  0.6956E-02  0.1938E+00  0.1938E+00  0.1782E+00  0.1938E+00  0.1782E+00
      8.141  0.2621E-01  0.1086E-01  0.1086E-01  0.1086E-01  0.2647E+00  0.2647E+00  0.2145E+00  0.2647E+00  0.2145E+00
      8.527  0.2575E-01  0.1271E-01  0.1271E-01  0.1271E-01  0.3346E+00  0.3346E+00  0.2429E+00  0.3346E+00  0.2429E+00
      8.914  0.1627E-01  0.8201E-02  0.8201E-02  0.8201E-02  0.2716E+00  0.2716E+00  0.1997E+00  0.2716E+00  0.1997E+00
      9.300  0.1237E-01  0.8157E-02  0.8157E-02  0.8157E-02  0.1675E+00  0.1675E+00  0.1865E+00  0.1675E+00  0.1865E+00
      9.687  0.1153E-01  0.6815E-02  0.6815E-02  0.6815E-02  0.1339E+00  0.1339E+00  0.2714E+00  0.1339E+00  0.2714E+00
     10.073  0.1198E-01  0.7320E-02  0.7320E-02  0.7320E-02  0.1352E+00  0.1352E+00  0.4359E+00  0.1352E+00  0.4359E+00
     10.460  0.1115E-01  0.4678E-02  0.4678E-02  0.4678E-02  0.1336E+00  0.1336E+00  0.3171E+00  0.1336E+00  0.3171E+00
     10.846  0.2831E-02  0.3496E-02  0.3496E-02  0.3496E-02  0.9176E-01  0.9176E-01  0.2268E+00  0.9176E-01  0.2268E+00
     11.233  0.8561E-02  0.3446E-02  0.3446E-02  0.3446E-02  0.1800E+00  0.1800E+00  0.2761E+00  0.1800E+00  0.2761E+00
     11.620  0.6467E-02  0.2473E-02  0.2473E-02  0.2473E-02  0.2620E+00  0.2620E+00  0.2556E+00  0.2620E+00  0.2556E+00
     12.006  0.6516E-02  0.2288E-02  0.2288E-02  0.2288E-02  0.3925E+00  0.3925E+00  0.2282E+00  0.3925E+00  0.2282E+00
     12.393  0.1343E-01  0.2287E-02  0.2287E-02  0.2287E-02  0.2054E+00  0.2054E+00  0.8999E-01  0.2054E+00  0.8999E-01
     12.779  0.5804E-02  0.2456E-02  0.2456E-02  0.2456E-02  0.2142E-01  0.2142E-01  0.2169E-01  0.2142E-01  0.2169E-01
     13.166  0.2840E-01  0.6267E-02  0.6267E-02  0.6267E-02  0.6811E-01  0.6811E-01  0.5527E-01  0.6811E-01  0.5527E-01
     13.552  0.8840E-02  0.2289E-02  0.2289E-02  0.2289E-02  0.1715E-01  0.1715E-01  0.1225E-01  0.1715E-01  0.1225E-01
     13.939  0.2862E-01  0.4800E-02  0.4800E-02  0.4800E-02  0.4431E-01  0.4431E-01  0.3475E-01  0.4431E-01  0.3475E-01