PROCAR lm decomposed
# of k-points:  110         # of bands:   24         # of ions:    1

 k-point     1 :    0.05000000 0.05000000 0.05000000     weight = 0.00200000

band     1 # energy  -40.65482334 # occ.  2.00000000
 
ion      s     py     pz     px    dxy    dyz    dz2    dxz  x2-y2    tot
    1  0.000  0.332  0.332  0.332  0.000  0.000  0.000  0.000  0.000  0.996
 
band     2 # energy  -40.64533386 # occ.  2.00000000
 
ion      s     py     pz     px    dxy    dyz    dz2    dxz  x2-y2    tot
    1  0.000  0.341  0.603  0.053  0.000  0.000  0.000  0.000  0.000  0.997
 
band     3 # energy  -40.64533386 # occ.  2.00000000
 
ion      s     py     pz     px    dxy    dyz    dz2    dxz  x2-y2    tot
    1  0.000  0.323  0.062  0.612  0.000  0.000  0.000  0.000  0.000  0.997
 
band     4 # energy    1.82518727 # occ.  2.00000000
 
ion      s     py     pz     px    dxy    dyz    dz2    dxz  x2-y2    tot
    1  0.395  0.000  0.000  0.000  0.000  0.000  0.000  0.000  0.000  0.397
 
band     5 # energy    8.07888539 # occ.  2.00000000
 
ion      s     py     pz     px    dxy    dyz    dz2    dxz  x2-y2    tot
    1  0.000  0.000  0.000  0.000  0.281  0.281  0.000  0.281  0.000  0.842
 
band     6 # energy    8.16333706 # occ.  2.00000000
 
ion      s     py     pz     px    dxy    dyz    dz2    dxz  x2-y2    tot
    1  0.000  0.000  0.000  0.000  0.000  0.423  0.000  0.424  0.000  0.847
 
band     7 # energy    8.16333706 # occ.  2.00000000
 
ion      s     py     pz     px    dxy    dyz    dz2    dxz  x2-y2    tot
    1  0.000  0.000  0.000  0.000  0.564  0.142  0.000  0.141  0.000  0.847
 
band     8 # energy   10.23215851 # occ.  2.00000000
 
ion      s     py     pz     px    dxy    dyz    dz2    dxz  x2-y2    tot
    1  0.000  0.000  0.000  0.000  0.000  0.000  0.000  0.000  0.910  0.910
 
band     9 # energy   10.23215851 # occ.  2.00000000
 
ion      s     py     pz     px    dxy    dyz    dz2    dxz  x2-y2    tot
    1  0.000  0.000  0.000  0.000  0.000  0.000  0.910  0.000  0.000  0.910
 
band    10 # energy   26.65107460 # occ.  0.00000000
 
ion      s     py     pz     px    dxy    dyz    dz2    dxz  x2-y2    tot
    1  0.000  0.000  0.000  0.000  0.002  0.002  0.000  0.002  0.000  0.007
 
band    11 # energy   30.85098335 # occ.  0.00000000
 
ion      s     py     pz     px    dxy    dyz    dz2    dxz  x2-y2    tot
    1  0.009  0.022  0.022  0.022  0.002  0.002  0.000  0.002  0.000  0.079
 
band    12 # energy   31.55458798 # occ.  0.00000000
 
ion      s     py     pz     px    dxy    dyz    dz2    dxz  x2-y2    tot
    1  0.000  0.042  0.004  0.024  0.000  0.001  0.000  0.001  0.003  0.075
 
band    13 # energy   31.55458798 # occ.  0.00000000
 
ion      s     py     pz     px    dxy    dyz    dz2    dxz  x2-y2    tot
    1  0.000  0.005  0.043  0.023  0.001  0.000  0.003  0.000  0.000  0.075
 
band    14 # energy   37.33449962 # occ.  0.00000000
 
ion      s     py     pz     px    dxy    dyz    dz2    dxz  x2-y2    tot
    1  0.046  0.005  0.005  0.005  0.001  0.001  0.000  0.001  0.000  0.064
 
band    15 # energy   42.19945104 # occ.  0.00000000
 
ion      s     py     pz     px    dxy    dyz    dz2    dxz  x2-y2    tot
    1  0.008  0.054  0.054  0.054  0.104  0.104  0.000  0.104  0.000  0.484
 
band    16 # energy   42.94113111 # occ.  0.00000000
 
ion      s     py     pz     px    dxy    dyz    dz2    dxz  x2-y2    tot
    1  0.000  0.024  0.007  0.056  0.033  0.257  0.000  0.113  0.002  0.491
 
band    17 # energy   42.94113111 # occ.  0.00000000
 
ion      s     py     pz     px    dxy    dyz    dz2    dxz  x2-y2    tot
    1  0.000  0.034  0.051  0.002  0.236  0.011  0.002  0.156  0.000  0.491
 
band    18 # energy   46.19177706 # occ.  0.00000000
 
ion      s     py     pz     px    dxy    dyz    dz2    dxz  x2-y2    tot
    1  0.000  0.237  0.008  0.303  0.001  0.047  0.000  0.037  0.016  0.649
 
band    19 # energy   46.19177706 # occ.  0.00000000
 
ion      s     py     pz     px    dxy    dyz    dz2    dxz  x2-y2    tot
    1  0.000  0.128  0.357  0.062  0.056  0.010  0.016  0.020  0.000  0.649
 
band    20 # energy   47.11591778 # occ.  0.00000000
 
ion      s     py     pz     px    dxy    dyz    dz2    dxz  x2-y2    tot
    1  0.026  0.149  0.149  0.149  0.060  0.060  0.000  0.060  0.000  0.652
 
band    21 # energy   52.56257359 # occ.  0.00000000
 
ion      s     py     pz     px    dxy    dyz    dz2    dxz  x2-y2    tot
    1  6.297  0.000  0.000  0.000  0.000  0.000  0.000  0.000  0.000  6.297
 
band    22 # energy   52.94883840 # occ.  0.00000000
 
ion      s     py     pz     px    dxy    dyz    dz2    dxz  x2-y2    tot
    1  0.000  0.013  0.013  0.000  0.000  0.000  0.334  0.000  0.119  0.479
 
band    23 # energy   52.94883840 # occ.  0.00000000
 
ion      s     py     pz     px    dxy    dyz    dz2    dxz  x2-y2    tot
    1  0.000  0.004  0.004  0.017  0.000  0.000  0.119  0.000  0.334  0.479
 
band    24 # energy   60.18153553 # occ.  0.00000000
 
ion      s     py     pz     px    dxy    dyz    dz2    dxz  x2-y2    tot
    1  0.449  0.016  0.016  0.016  0.000  0.000  0.000  0.000  0.000  0.498
 

 k-point     2 :    0.15000000 0.05000000 0.05000000     weight = 0.00600000

band     1 # energy  -40.70826544 # occ.  2.00000000
 
ion      s     py     pz     px    dxy    dyz    dz2    dxz  x2-y2    tot
    1  0.000  0.454  0.454  0.086  0.000  0.000  0.000  0.000  0.000  0.994
 
band     2 # energy  -40.66112884 # occ.  2.00000000
 
ion      s     py     pz     px    dxy    dyz    dz2    dxz  x2-y2    tot
    1  0.000  0.043  0.043  0.910  0.000  0.000  0.000  0.000  0.000  0.996
 
band     3 # energy  -40.65005096 # occ.  2.00000000
 
ion      s     py     pz     px    dxy    dyz    dz2    dxz  x2-y2    tot
    1  0.000  0.498  0.498  0.000  0.000  0.000  0.000  0.000  0.000  0.996
 
band     4 # energy    2.34358005 # occ.  2.00000000
 
ion      s     py     pz     px    dxy    dyz    dz2    dxz  x2-y2    tot
    1  0.383  0.004  0.004  0.000  0.000  0.002  0.000  0.000  0.000  0.394
 
band     5 # energy    7.84966335 # occ.  2.00000000
 
ion      s     py     pz     px    dxy    dyz    dz2    dxz  x2-y2    tot
    1  0.000  0.000  0.000  0.002  0.395  0.029  0.000  0.395  0.000  0.821
 
band     6 # energy    8.34289776 # occ.  2.00000000
 
ion      s     py     pz     px    dxy    dyz    dz2    dxz  x2-y2    tot
    1  0.000  0.000  0.000  0.000  0.423  0.000  0.003  0.423  0.001  0.850
 
band     7 # energy    8.38218687 # occ.  2.00000000
 
ion      s     py     pz     px    dxy    dyz    dz2    dxz  x2-y2    tot
    1  0.000  0.001  0.001  0.000  0.015  0.790  0.006  0.015  0.018  0.846
 
band     8 # energy   10.00900210 # occ.  2.00000000
 
ion      s     py     pz     px    dxy    dyz    dz2    dxz  x2-y2    tot
    1  0.000  0.000  0.000  0.000  0.002  0.000  0.669  0.002  0.223  0.897
 
band     9 # energy   10.28897289 # occ.  2.00000000
 
ion      s     py     pz     px    dxy    dyz    dz2    dxz  x2-y2    tot
    1  0.000  0.000  0.000  0.000  0.001  0.024  0.221  0.001  0.662  0.908
 
band    10 # energy   27.39436570 # occ.  0.00000000
 
ion      s     py     pz     px    dxy    dyz    dz2    dxz  x2-y2    tot
    1  0.000  0.000  0.000  0.001  0.021  0.002  0.000  0.021  0.000  0.045
 
band    11 # energy   29.14302486 # occ.  0.00000000
 
ion      s     py     pz     px    dxy    dyz    dz2    dxz  x2-y2    tot
    1  0.033  0.026  0.026  0.007  0.003  0.017  0.001  0.003  0.004  0.120
 
band    12 # energy   31.67176221 # occ.  0.00000000
 
ion      s     py     pz     px    dxy    dyz    dz2    dxz  x2-y2    tot
    1  0.000  0.003  0.003  0.090  0.011  0.002  0.001  0.011  0.004  0.126
 
band    13 # energy   32.67005278 # occ.  0.00000000
 
ion      s     py     pz     px    dxy    dyz    dz2    dxz  x2-y2    tot
    1  0.000  0.033  0.033  0.000  0.001  0.000  0.022  0.001  0.007  0.097
 
band    14 # energy   37.89431629 # occ.  0.00000000
 
ion      s     py     pz     px    dxy    dyz    dz2    dxz  x2-y2    tot
    1  0.003  0.103  0.103  0.009  0.005  0.113  0.000  0.005  0.001  0.343
 
band    15 # energy   40.30876991 # occ.  0.00000000
 
ion      s     py     pz     px    dxy    dyz    dz2    dxz  x2-y2    tot
    1  0.012  0.007  0.007  0.130  0.063  0.048  0.002  0.063  0.007  0.340
 
band    16 # energy   40.74975583 # occ.  0.00000000
 
ion      s     py     pz     px    dxy    dyz    dz2    dxz  x2-y2    tot
    1  0.055  0.003  0.003  0.048  0.031  0.007  0.000  0.031  0.001  0.181
 
band    17 # energy   42.00076124 # occ.  0.00000000
 
ion      s     py     pz     px    dxy    dyz    dz2    dxz  x2-y2    tot
    1  0.000  0.080  0.080  0.000  0.142  0.000  0.015  0.142  0.005  0.464
 
band    18 # energy   44.52770300 # occ.  0.00000000
 
ion      s     py     pz     px    dxy    dyz    dz2    dxz  x2-y2    tot
    1  0.000  0.188  0.188  0.000  0.077  0.000  0.044  0.077  0.015  0.589
 
band    19 # energy   47.61233674 # occ.  0.00000000
 
ion      s     py     pz     px    dxy    dyz    dz2    dxz  x2-y2    tot
    1  0.076  0.116  0.116  0.030  0.000  0.257  0.006  0.000  0.019  0.622
 
band    20 # energy   49.86649396 # occ.  0.00000000
 
ion      s     py     pz     px    dxy    dyz    dz2    dxz  x2-y2    tot
    1  0.035  0.005  0.005  0.329  0.128  0.003  0.008  0.128  0.023  0.663
 
band    21 # energy   51.77702437 # occ.  0.00000000
 
ion      s     py     pz     px    dxy    dyz    dz2    dxz  x2-y2    tot
    1  0.007  0.007  0.007  0.069  0.006  0.010  0.068  0.006  0.203  0.382
 
band    22 # energy   52.55975438 # occ.  0.00000000
 
ion      s     py     pz     px    dxy    dyz    dz2    dxz  x2-y2    tot
    1  6.284  0.000  0.000  0.000  0.000  0.000  0.000  0.000  0.000  6.284
 
band    23 # energy   54.12089174 # occ.  0.00000000
 
ion      s     py     pz     px    dxy    dyz    dz2    dxz  x2-y2    tot
    1  0.000  0.059  0.059  0.000  0.001  0.000  0.236  0.001  0.079  0.434
 
band    24 # energy   60.97491135 # occ.  0.00000000
 
ion      s     py     pz     px    dxy    dyz    dz2    dxz  x2-y2    tot
    1  0.000  0.000  0.000  0.000  0.006  0.000  0.031  0.006  0.010  0.054
 

 k-point     3 :    0.25000000 0.05000000 0.05000000     weight = 0.00600000

band     1 # energy  -40.82767546 # occ.  2.00000000
 
ion      s     py     pz     px    dxy    dyz    dz2    dxz  x2-y2    tot
    1  0.000  0.389  0.389  0.212  0.000  0.000  0.000  0.000  0.000  0.990
 
band     2 # energy  -40.68194518 # occ.  2.00000000
 
ion      s     py     pz     px    dxy    dyz    dz2    dxz  x2-y2    tot
    1  0.000  0.106  0.106  0.783  0.000  0.000  0.000  0.000  0.000  0.995
 
band     3 # energy  -40.66559415 # occ.  2.00000000
 
ion      s     py     pz     px    dxy    dyz    dz2    dxz  x2-y2    tot
    1  0.000  0.498  0.498  0.000  0.000  0.000  0.000  0.000  0.000  0.996
 
band     4 # energy    3.45282456 # occ.  2.00000000
 
ion      s     py     pz     px    dxy    dyz    dz2    dxz  x2-y2    tot
    1  0.343  0.008  0.008  0.002  0.012  0.022  0.000  0.012  0.001  0.408
 
band     5 # energy    7.62936309 # occ.  2.00000000
 
ion      s     py     pz     px    dxy    dyz    dz2    dxz  x2-y2    tot
    1  0.009  0.003  0.003  0.006  0.337  0.064  0.000  0.337  0.000  0.761
 
band     6 # energy    8.53103176 # occ.  2.00000000
 
ion      s     py     pz     px    dxy    dyz    dz2    dxz  x2-y2    tot
    1  0.001  0.001  0.001  0.000  0.035  0.573  0.049  0.035  0.147  0.841
 
band     7 # energy    8.56978341 # occ.  2.00000000
 
ion      s     py     pz     px    dxy    dyz    dz2    dxz  x2-y2    tot
    1  0.000  0.000  0.000  0.000  0.347  0.000  0.118  0.347  0.039  0.852
 
band     8 # energy    9.99412796 # occ.  2.00000000
 
ion      s     py     pz     px    dxy    dyz    dz2    dxz  x2-y2    tot
    1  0.000  0.000  0.000  0.000  0.082  0.000  0.541  0.082  0.180  0.887
 
band     9 # energy   10.55263918 # occ.  2.00000000
 
ion      s     py     pz     px    dxy    dyz    dz2    dxz  x2-y2    tot
    1  0.002  0.001  0.001  0.000  0.011  0.181  0.174  0.011  0.523  0.903
 
band    10 # energy   26.24333303 # occ.  0.00000000
 
ion      s     py     pz     px    dxy    dyz    dz2    dxz  x2-y2    tot
    1  0.082  0.030  0.030  0.026  0.028  0.043  0.001  0.028  0.003  0.270
 
band    11 # energy   28.34685358 # occ.  0.00000000
 
ion      s     py     pz     px    dxy    dyz    dz2    dxz  x2-y2    tot
    1  0.001  0.002  0.002  0.009  0.046  0.012  0.000  0.046  0.001  0.116
 
band    12 # energy   32.75094210 # occ.  0.00000000
 
ion      s     py     pz     px    dxy    dyz    dz2    dxz  x2-y2    tot
    1  0.001  0.014  0.014  0.125  0.017  0.028  0.006  0.017  0.017  0.239
 
band    13 # energy   34.68474528 # occ.  0.00000000
 
ion      s     py     pz     px    dxy    dyz    dz2    dxz  x2-y2    tot
    1  0.037  0.080  0.080  0.003  0.000  0.040  0.002  0.000  0.007  0.249
 
band    14 # energy   34.74594112 # occ.  0.00000000
 
ion      s     py     pz     px    dxy    dyz    dz2    dxz  x2-y2    tot
    1  0.000  0.036  0.036  0.000  0.009  0.000  0.054  0.009  0.018  0.162
 
band    15 # energy   38.03337894 # occ.  0.00000000
 
ion      s     py     pz     px    dxy    dyz    dz2    dxz  x2-y2    tot
    1  0.003  0.000  0.000  0.114  0.023  0.013  0.008  0.023  0.024  0.207
 
band    16 # energy   38.06210978 # occ.  0.00000000
 
ion      s     py     pz     px    dxy    dyz    dz2    dxz  x2-y2    tot
    1  0.000  0.108  0.108  0.000  0.057  0.000  0.034  0.057  0.011  0.376
 
band    17 # energy   44.64579994 # occ.  0.00000000
 
ion      s     py     pz     px    dxy    dyz    dz2    dxz  x2-y2    tot
    1  0.082  0.000  0.000  0.000  0.000  0.009  0.002  0.000  0.007  0.101
 
band    18 # energy   44.96147491 # occ.  0.00000000
 
ion      s     py     pz     px    dxy    dyz    dz2    dxz  x2-y2    tot
    1  0.000  0.125  0.125  0.000  0.115  0.000  0.047  0.115  0.016  0.543
 
band    19 # energy   48.23790359 # occ.  0.00000000
 
ion      s     py     pz     px    dxy    dyz    dz2    dxz  x2-y2    tot
    1  0.055  0.063  0.063  0.088  0.001  0.244  0.015  0.001  0.044  0.574
 
band    20 # energy   50.29975376 # occ.  0.00000000
 
ion      s     py     pz     px    dxy    dyz    dz2    dxz  x2-y2    tot
    1  0.107  0.006  0.006  0.018  0.098  0.000  0.029  0.098  0.087  0.450
 
band    21 # energy   52.56128004 # occ.  0.00000000
 
ion      s     py     pz     px    dxy    dyz    dz2    dxz  x2-y2    tot
    1  6.268  0.000  0.000  0.001  0.000  0.000  0.000  0.000  0.000  6.269
 
band    22 # energy   52.94960520 # occ.  0.00000000
 
ion      s     py     pz     px    dxy    dyz    dz2    dxz  x2-y2    tot
    1  0.032  0.012  0.012  0.240  0.057  0.038  0.011  0.057  0.032  0.491
 
band    23 # energy   54.77348365 # occ.  0.00000000
 
ion      s     py     pz     px    dxy    dyz    dz2    dxz  x2-y2    tot
    1  0.000  0.083  0.083  0.000  0.007  0.000  0.124  0.007  0.041  0.345
 
band    24 # energy   61.28227114 # occ.  0.00000000
 
ion      s     py     pz     px    dxy    dyz    dz2    dxz  x2-y2    tot
    1  0.000  0.000  0.000  0.000  0.002  0.000  0.040  0.002  0.013  0.057
 

 k-point     4 :    0.35000000 0.05000000 0.05000000     weight = 0.00600000

band     1 # energy  -40.96309669 # occ.  2.00000000
 
ion      s     py     pz     px    dxy    dyz    dz2    dxz  x2-y2    tot
    1  0.000  0.359  0.359  0.268  0.000  0.000  0.000  0.000  0.000  0.986
 
band     2 # energy  -40.70263232 # occ.  2.00000000
 
ion      s     py     pz     px    dxy    dyz    dz2    dxz  x2-y2    tot
    1  0.000  0.135  0.135  0.725  0.000  0.000  0.000  0.000  0.000  0.995
 
band     3 # energy  -40.68617540 # occ.  2.00000000
 
ion      s     py     pz     px    dxy    dyz    dz2    dxz  x2-y2    tot
    1  0.000  0.498  0.498  0.000  0.000  0.000  0.000  0.000  0.000  0.995
 
band     4 # energy    4.44163171 # occ.  2.00000000
 
ion      s     py     pz     px    dxy    dyz    dz2    dxz  x2-y2    tot
    1  0.240  0.007  0.007  0.002  0.082  0.093  0.000  0.082  0.001  0.513
 
band     5 # energy    8.19671066 # occ.  2.00000000
 
ion      s     py     pz     px    dxy    dyz    dz2    dxz  x2-y2    tot
    1  0.043  0.011  0.011  0.016  0.266  0.009  0.011  0.266  0.032  0.664
 
band     6 # energy    8.38077498 # occ.  2.00000000
 
ion      s     py     pz     px    dxy    dyz    dz2    dxz  x2-y2    tot
    1  0.015  0.007  0.007  0.003  0.000  0.367  0.090  0.000  0.270  0.759
 
band     7 # energy    8.41229400 # occ.  2.00000000
 
ion      s     py     pz     px    dxy    dyz    dz2    dxz  x2-y2    tot
    1  0.000  0.000  0.000  0.000  0.217  0.000  0.307  0.217  0.102  0.843
 
band     8 # energy   10.65096169 # occ.  2.00000000
 
ion      s     py     pz     px    dxy    dyz    dz2    dxz  x2-y2    tot
    1  0.000  0.001  0.001  0.000  0.221  0.000  0.344  0.221  0.115  0.902
 
band     9 # energy   11.29405131 # occ.  2.00000000
 
ion      s     py     pz     px    dxy    dyz    dz2    dxz  x2-y2    tot
    1  0.007  0.002  0.002  0.000  0.027  0.364  0.119  0.027  0.358  0.907
 
band    10 # energy   22.75684539 # occ.  0.00000000
 
ion      s     py     pz     px    dxy    dyz    dz2    dxz  x2-y2    tot
    1  0.173  0.032  0.032  0.034  0.065  0.071  0.001  0.065  0.002  0.473
 
band    11 # energy   27.56670803 # occ.  0.00000000
 
ion      s     py     pz     px    dxy    dyz    dz2    dxz  x2-y2    tot
    1  0.004  0.006  0.006  0.012  0.029  0.006  0.001  0.029  0.003  0.094
 
band    12 # energy   32.12348999 # occ.  0.00000000
 
ion      s     py     pz     px    dxy    dyz    dz2    dxz  x2-y2    tot
    1  0.010  0.049  0.049  0.137  0.028  0.032  0.000  0.028  0.001  0.334
 
band    13 # energy   34.34670285 # occ.  0.00000000
 
ion      s     py     pz     px    dxy    dyz    dz2    dxz  x2-y2    tot
    1  0.000  0.119  0.119  0.000  0.030  0.000  0.016  0.030  0.005  0.319
 
band    14 # energy   35.57084828 # occ.  0.00000000
 
ion      s     py     pz     px    dxy    dyz    dz2    dxz  x2-y2    tot
    1  0.018  0.006  0.006  0.040  0.001  0.017  0.014  0.001  0.042  0.145
 
band    15 # energy   37.38324167 # occ.  0.00000000
 
ion      s     py     pz     px    dxy    dyz    dz2    dxz  x2-y2    tot
    1  0.000  0.012  0.012  0.000  0.017  0.000  0.127  0.017  0.042  0.228
 
band    16 # energy   37.97977985 # occ.  0.00000000
 
ion      s     py     pz     px    dxy    dyz    dz2    dxz  x2-y2    tot
    1  0.022  0.006  0.006  0.024  0.004  0.000  0.017  0.004  0.052  0.136
 
band    17 # energy   45.39795127 # occ.  0.00000000
 
ion      s     py     pz     px    dxy    dyz    dz2    dxz  x2-y2    tot
    1  0.000  0.128  0.128  0.000  0.090  0.000  0.036  0.090  0.012  0.484
 
band    18 # energy   47.60241789 # occ.  0.00000000
 
ion      s     py     pz     px    dxy    dyz    dz2    dxz  x2-y2    tot
    1  0.144  0.013  0.013  0.074  0.000  0.183  0.016  0.000  0.048  0.490
 
band    19 # energy   49.74428230 # occ.  0.00000000
 
ion      s     py     pz     px    dxy    dyz    dz2    dxz  x2-y2    tot
    1  0.072  0.031  0.031  0.057  0.064  0.013  0.014  0.064  0.042  0.387
 
band    20 # energy   50.98301011 # occ.  0.00000000
 
ion      s     py     pz     px    dxy    dyz    dz2    dxz  x2-y2    tot
    1  0.031  0.017  0.017  0.021  0.039  0.003  0.007  0.039  0.020  0.194
 
band    21 # energy   52.56776870 # occ.  0.00000000
 
ion      s     py     pz     px    dxy    dyz    dz2    dxz  x2-y2    tot
    1  6.278  0.000  0.000  0.000  0.000  0.000  0.000  0.000  0.000  6.278
 
band    22 # energy   53.65163812 # occ.  0.00000000
 
ion      s     py     pz     px    dxy    dyz    dz2    dxz  x2-y2    tot
    1  0.009  0.027  0.027  0.127  0.021  0.075  0.002  0.021  0.007  0.316
 
band    23 # energy   55.47434803 # occ.  0.00000000
 
ion      s     py     pz     px    dxy    dyz    dz2    dxz  x2-y2    tot
    1  0.000  0.090  0.090  0.000  0.015  0.000  0.060  0.015  0.020  0.288
 
band    24 # energy   60.26604278 # occ.  0.00000000
 
ion      s     py     pz     px    dxy    dyz    dz2    dxz  x2-y2    tot
    1  0.000  0.002  0.002  0.000  0.042  0.000  0.069  0.042  0.023  0.179
 

 k-point     5 :    0.45000000 0.05000000 0.05000000     weight = 0.00600000

band     1 # energy  -41.06354214 # occ.  2.00000000
 
ion      s     py     pz     px    dxy    dyz    dz2    dxz  x2-y2    tot
    1  0.000  0.340  0.340  0.303  0.000  0.000  0.000  0.000  0.000  0.983
 
band     2 # energy  -40.71566363 # occ.  2.00000000
 
ion      s     py     pz     px    dxy    dyz    dz2    dxz  x2-y2    tot
    1  0.000  0.154  0.154  0.687  0.000  0.000  0.000  0.000  0.000  0.994
 
band     3 # energy  -40.70335293 # occ.  2.00000000
 
ion      s     py     pz     px    dxy    dyz    dz2    dxz  x2-y2    tot
    1  0.000  0.497  0.497  0.000  0.000  0.000  0.000  0.000  0.000  0.995
 
band     4 # energy    4.69550157 # occ.  2.00000000
 
ion      s     py     pz     px    dxy    dyz    dz2    dxz  x2-y2    tot
    1  0.152  0.002  0.002  0.000  0.152  0.157  0.000  0.152  0.000  0.616
 
band     5 # energy    8.08900967 # occ.  2.00000000
 
ion      s     py     pz     px    dxy    dyz    dz2    dxz  x2-y2    tot
    1  0.000  0.000  0.000  0.000  0.055  0.246  0.118  0.055  0.353  0.828
 
band     6 # energy    8.18766135 # occ.  2.00000000
 
ion      s     py     pz     px    dxy    dyz    dz2    dxz  x2-y2    tot
    1  0.000  0.000  0.000  0.000  0.173  0.000  0.366  0.173  0.122  0.834
 
band     7 # energy    9.96111822 # occ.  2.00000000
 
ion      s     py     pz     px    dxy    dyz    dz2    dxz  x2-y2    tot
    1  0.046  0.035  0.035  0.036  0.109  0.008  0.015  0.109  0.046  0.439
 
band     8 # energy   11.49226585 # occ.  2.00000000
 
ion      s     py     pz     px    dxy    dyz    dz2    dxz  x2-y2    tot
    1  0.000  0.000  0.000  0.000  0.276  0.000  0.284  0.276  0.095  0.931
 
band     9 # energy   12.17196540 # occ.  0.00000000
 
ion      s     py     pz     px    dxy    dyz    dz2    dxz  x2-y2    tot
    1  0.018  0.010  0.010  0.006  0.026  0.407  0.085  0.026  0.256  0.843
 
band    10 # energy   19.14990113 # occ.  0.00000000
 
ion      s     py     pz     px    dxy    dyz    dz2    dxz  x2-y2    tot
    1  0.291  0.016  0.016  0.020  0.110  0.097  0.001  0.110  0.002  0.662
 
band    11 # energy   26.50316979 # occ.  0.00000000
 
ion      s     py     pz     px    dxy    dyz    dz2    dxz  x2-y2    tot
    1  0.001  0.004  0.004  0.006  0.008  0.000  0.001  0.008  0.003  0.034
 
band    12 # energy   30.67113104 # occ.  0.00000000
 
ion      s     py     pz     px    dxy    dyz    dz2    dxz  x2-y2    tot
    1  0.005  0.039  0.039  0.144  0.014  0.003  0.000  0.014  0.001  0.261
 
band    13 # energy   31.70391910 # occ.  0.00000000
 
ion      s     py     pz     px    dxy    dyz    dz2    dxz  x2-y2    tot
    1  0.000  0.110  0.110  0.000  0.006  0.000  0.012  0.006  0.004  0.248
 
band    14 # energy   38.46874256 # occ.  0.00000000
 
ion      s     py     pz     px    dxy    dyz    dz2    dxz  x2-y2    tot
    1  0.008  0.000  0.000  0.021  0.000  0.070  0.041  0.000  0.122  0.263
 
band    15 # energy   39.50683945 # occ.  0.00000000
 
ion      s     py     pz     px    dxy    dyz    dz2    dxz  x2-y2    tot
    1  0.000  0.003  0.003  0.000  0.049  0.000  0.194  0.049  0.065  0.363
 
band    16 # energy   40.11861540 # occ.  0.00000000
 
ion      s     py     pz     px    dxy    dyz    dz2    dxz  x2-y2    tot
    1  0.070  0.007  0.007  0.010  0.051  0.007  0.011  0.051  0.032  0.248
 
band    17 # energy   46.06191808 # occ.  0.00000000
 
ion      s     py     pz     px    dxy    dyz    dz2    dxz  x2-y2    tot
    1  0.000  0.155  0.155  0.000  0.029  0.000  0.004  0.029  0.001  0.375
 
band    18 # energy   47.42646175 # occ.  0.00000000
 
ion      s     py     pz     px    dxy    dyz    dz2    dxz  x2-y2    tot
    1  0.084  0.009  0.009  0.159  0.001  0.107  0.013  0.001  0.039  0.423
 
band    19 # energy   48.76480909 # occ.  0.00000000
 
ion      s     py     pz     px    dxy    dyz    dz2    dxz  x2-y2    tot
    1  0.034  0.063  0.063  0.026  0.042  0.005  0.005  0.042  0.016  0.298
 
band    20 # energy   52.57347348 # occ.  0.00000000
 
ion      s     py     pz     px    dxy    dyz    dz2    dxz  x2-y2    tot
    1  6.294  0.000  0.000  0.000  0.000  0.000  0.000  0.000  0.000  6.294
 
band    21 # energy   53.25169596 # occ.  0.00000000
 
ion      s     py     pz     px    dxy    dyz    dz2    dxz  x2-y2    tot
    1  0.004  0.032  0.032  0.068  0.011  0.063  0.002  0.011  0.005  0.228
 
band    22 # energy   56.03998192 # occ.  0.00000000
 
ion      s     py     pz     px    dxy    dyz    dz2    dxz  x2-y2    tot
    1  0.000  0.071  0.071  0.000  0.000  0.000  0.024  0.000  0.008  0.175
 
band    23 # energy   56.24279503 # occ.  0.00000000
 
ion      s     py     pz     px    dxy    dyz    dz2    dxz  x2-y2    tot
    1  0.058  0.001  0.001  0.001  0.001  0.001  0.000  0.001  0.000  0.065
 
band    24 # energy   57.36873784 # occ.  0.00000000
 
ion      s     py     pz     px    dxy    dyz    dz2    dxz  x2-y2    tot
    1  0.000  0.014  0.014  0.000  0.116  0.000  0.006  0.116  0.002  0.268
 

 k-point     6 :   -0.45000000 0.05000000 0.05000000     weight = 0.00600000

band     1 # energy  -41.09098330 # occ.  2.00000000
 
ion      s     py     pz     px    dxy    dyz    dz2    dxz  x2-y2    tot
    1  0.000  0.323  0.323  0.335  0.000  0.000  0.000  0.000  0.000  0.982
 
band     2 # energy  -40.71599823 # occ.  2.00000000
 
ion      s     py     pz     px    dxy    dyz    dz2    dxz  x2-y2    tot
    1  0.000  0.170  0.170  0.655  0.000  0.000  0.000  0.000  0.000  0.994
 
band     3 # energy  -40.71182166 # occ.  2.00000000
 
ion      s     py     pz     px    dxy    dyz    dz2    dxz  x2-y2    tot
    1  0.000  0.497  0.497  0.000  0.000  0.000  0.000  0.000  0.000  0.995
 
band     4 # energy    4.70102145 # occ.  2.00000000
 
ion      s     py     pz     px    dxy    dyz    dz2    dxz  x2-y2    tot
    1  0.134  0.000  0.000  0.001  0.164  0.174  0.000  0.164  0.000  0.636
 
band     5 # energy    7.99932469 # occ.  2.00000000
 
ion      s     py     pz     px    dxy    dyz    dz2    dxz  x2-y2    tot
    1  0.000  0.000  0.000  0.000  0.058  0.208  0.125  0.058  0.374  0.824
 
band     6 # energy    8.13532250 # occ.  2.00000000
 
ion      s     py     pz     px    dxy    dyz    dz2    dxz  x2-y2    tot
    1  0.000  0.000  0.000  0.000  0.170  0.000  0.369  0.170  0.123  0.832
 
band     7 # energy   10.68164209 # occ.  2.00000000
 
ion      s     py     pz     px    dxy    dyz    dz2    dxz  x2-y2    tot
    1  0.003  0.036  0.036  0.034  0.029  0.204  0.031  0.029  0.094  0.496
 
band     8 # energy   11.90569799 # occ.  0.45770288
 
ion      s     py     pz     px    dxy    dyz    dz2    dxz  x2-y2    tot
    1  0.000  0.000  0.000  0.000  0.284  0.000  0.285  0.284  0.095  0.950
 
band     9 # energy   12.61216997 # occ.  0.00000000
 
ion      s     py     pz     px    dxy    dyz    dz2    dxz  x2-y2    tot
    1  0.002  0.025  0.025  0.029  0.073  0.180  0.061  0.073  0.183  0.652
 
band    10 # energy   17.65230770 # occ.  0.00000000
 
ion      s     py     pz     px    dxy    dyz    dz2    dxz  x2-y2    tot
    1  0.375  0.002  0.002  0.000  0.135  0.140  0.000  0.135  0.000  0.790
 
band    11 # energy   26.21857594 # occ.  0.00000000
 
ion      s     py     pz     px    dxy    dyz    dz2    dxz  x2-y2    tot
    1  0.000  0.003  0.003  0.005  0.000  0.004  0.001  0.000  0.004  0.021
 
band    12 # energy   30.56699388 # occ.  0.00000000
 
ion      s     py     pz     px    dxy    dyz    dz2    dxz  x2-y2    tot
    1  0.004  0.036  0.036  0.143  0.003  0.005  0.002  0.003  0.006  0.240
 
band    13 # energy   30.61616856 # occ.  0.00000000
 
ion      s     py     pz     px    dxy    dyz    dz2    dxz  x2-y2    tot
    1  0.000  0.110  0.110  0.000  0.001  0.000  0.004  0.001  0.001  0.227
 
band    14 # energy   39.73419493 # occ.  0.00000000
 
ion      s     py     pz     px    dxy    dyz    dz2    dxz  x2-y2    tot
    1  0.000  0.001  0.001  0.000  0.053  0.000  0.197  0.053  0.066  0.371
 
band    15 # energy   39.95185502 # occ.  0.00000000
 
ion      s     py     pz     px    dxy    dyz    dz2    dxz  x2-y2    tot
    1  0.000  0.000  0.000  0.001  0.015  0.081  0.069  0.015  0.206  0.386
 
band    16 # energy   41.44448921 # occ.  0.00000000
 
ion      s     py     pz     px    dxy    dyz    dz2    dxz  x2-y2    tot
    1  0.123  0.003  0.003  0.000  0.071  0.068  0.000  0.071  0.000  0.339
 
band    17 # energy   46.32623959 # occ.  0.00000000
 
ion      s     py     pz     px    dxy    dyz    dz2    dxz  x2-y2    tot
    1  0.024  0.079  0.079  0.121  0.003  0.001  0.001  0.003  0.002  0.313
 
band    18 # energy   47.24767664 # occ.  0.00000000
 
ion      s     py     pz     px    dxy    dyz    dz2    dxz  x2-y2    tot
    1  0.000  0.006  0.006  0.119  0.006  0.000  0.001  0.006  0.004  0.148
 
band    19 # energy   47.39502065 # occ.  0.00000000
 
ion      s     py     pz     px    dxy    dyz    dz2    dxz  x2-y2    tot
    1  0.000  0.166  0.166  0.000  0.002  0.000  0.018  0.002  0.006  0.360
 
band    20 # energy   52.57622599 # occ.  0.00000000
 
ion      s     py     pz     px    dxy    dyz    dz2    dxz  x2-y2    tot
    1  6.301  0.000  0.000  0.000  0.000  0.000  0.000  0.000  0.000  6.302
 
band    21 # energy   54.35648743 # occ.  0.00000000
 
ion      s     py     pz     px    dxy    dyz    dz2    dxz  x2-y2    tot
    1  0.000  0.043  0.043  0.000  0.052  0.000  0.000  0.052  0.000  0.191
 
band    22 # energy   54.97242142 # occ.  0.00000000
 
ion      s     py     pz     px    dxy    dyz    dz2    dxz  x2-y2    tot
    1  0.007  0.011  0.011  0.044  0.009  0.049  0.001  0.009  0.002  0.143
 