<?xml version="1.0" encoding="ISO-8859-1"?>
<modeling>
 <generator>
  <i name="program" type="string">vasp </i>
  <i name="version" type="string">6.3.2  </i>
  <i name="subversion" type="string">27Jun22 (build Aug 12 2022 00:53:59) complex                          parallel </i>
  <i name="platform" type="string">tv2STD </i>
  <i name="date" type="string">2024 12 03 </i>
  <i name="time" type="string">02:19:28 </i>
 </generator>
 <incar>
  <i type="string" name="SYSTEM">Pt-fcc</i>
  <i type="int" name="ISTART">     0</i>
  <i type="string" name="PREC">accurate      normal | accurate</i>
  <i type="string" name="ALGO">Normal     Normal, Fast, Very_Fast</i>
  <i type="logical" name="ADDGRID"> F  </i>
  <i type="int" name="ICHARG">     2</i>
  <i type="int" name="INIWAV">     1</i>
  <i type="int" name="NELM">   100</i>
  <i type="int" name="IBRION">     2</i>
  <i name="EDIFF">      0.00000100</i>
  <i name="EDIFFG">     -0.02000000</i>
  <i type="int" name="NSW">   100</i>
  <i type="int" name="ISIF">     2</i>
  <i type="int" name="ISYM">     1</i>
  <i name="ENCUT">    425.00000000</i>
  <i type="logical" name="LREAL"> F  </i>
  <i type="int" name="ISMEAR">     0</i>
  <i name="SIGMA">      0.05000000</i>
  <i type="int" name="NWRITE">     2</i>
  <i type="logical" name="LWAVE"> T  </i>
  <i type="logical" name="LCHARG"> T  </i>
  <i type="int" name="LORBIT">    11</i>
 </incar>
 <primitive_cell>
  <structure name="primitive_cell" >
   <crystal>
    <varray name="basis" >
     <v>       0.00000000       1.93927166       1.93927166 </v>
     <v>       1.93927166       0.00000000       1.93927166 </v>
     <v>       1.93927166       1.93927166       0.00000000 </v>
    </varray>
    <i name="volume">     14.58632702 </i>
    <varray name="rec_basis" >
     <v>      -0.25782876       0.25782876       0.25782876 </v>
     <v>       0.25782876      -0.25782876       0.25782876 </v>
     <v>       0.25782876       0.25782876      -0.25782876 </v>
    </varray>
   </crystal>
   <varray name="positions" >
    <v>       0.00000000       0.00000000       0.00000000 </v>
   </varray>
  </structure>
  <varray name="primitive_index" >
   <v type="int" >        1 </v>
  </varray>
 </primitive_cell>
 <kpoints>
  <generation param="Monkhorst-Pack">
   <v type="int" name="divisions">      10       10       10 </v>
   <v name="usershift">      0.00000000       0.00000000       0.00000000 </v>
   <v name="genvec1">      0.10000000       0.00000000       0.00000000 </v>
   <v name="genvec2">      0.00000000       0.10000000      -0.00000000 </v>
   <v name="genvec3">      0.00000000      -0.00000000       0.10000000 </v>
   <v name="shift">      0.50000000       0.50000000       0.50000000 </v>
  </generation>
  <varray name="kpointlist" >
   <v>       0.05000000       0.05000000       0.05000000 </v>
   <v>       0.15000000       0.05000000       0.05000000 </v>
   <v>       0.25000000       0.05000000       0.05000000 </v>
   <v>       0.35000000       0.05000000       0.05000000 </v>
   <v>       0.45000000       0.05000000       0.05000000 </v>
   <v>      -0.45000000       0.05000000       0.05000000 </v>
   <v>      -0.35000000       0.05000000       0.05000000 </v>
   <v>      -0.25000000       0.05000000       0.05000000 </v>
   <v>      -0.15000000       0.05000000       0.05000000 </v>
   <v>      -0.05000000       0.05000000       0.05000000 </v>
   <v>       0.15000000       0.15000000       0.05000000 </v>
   <v>       0.25000000       0.15000000       0.05000000 </v>
   <v>       0.35000000       0.15000000       0.05000000 </v>
   <v>       0.45000000       0.15000000       0.05000000 </v>
   <v>      -0.45000000       0.15000000       0.05000000 </v>
   <v>      -0.35000000       0.15000000       0.05000000 </v>
   <v>      -0.25000000       0.15000000       0.05000000 </v>
   <v>      -0.15000000       0.15000000       0.05000000 </v>
   <v>      -0.05000000       0.15000000       0.05000000 </v>
   <v>       0.25000000       0.25000000       0.05000000 </v>
   <v>       0.35000000       0.25000000       0.05000000 </v>
   <v>       0.45000000       0.25000000       0.05000000 </v>
   <v>      -0.45000000       0.25000000       0.05000000 </v>
   <v>      -0.35000000       0.25000000       0.05000000 </v>
   <v>      -0.25000000       0.25000000       0.05000000 </v>
   <v>      -0.15000000       0.25000000       0.05000000 </v>
   <v>      -0.05000000       0.25000000       0.05000000 </v>
   <v>       0.35000000       0.35000000       0.05000000 </v>
   <v>       0.45000000       0.35000000       0.05000000 </v>
   <v>      -0.45000000       0.35000000       0.05000000 </v>
   <v>      -0.35000000       0.35000000       0.05000000 </v>
   <v>      -0.25000000       0.35000000       0.05000000 </v>
   <v>      -0.15000000       0.35000000       0.05000000 </v>
   <v>      -0.05000000       0.35000000       0.05000000 </v>
   <v>       0.45000000       0.45000000       0.05000000 </v>
   <v>      -0.45000000       0.45000000       0.05000000 </v>
   <v>      -0.35000000       0.45000000       0.05000000 </v>
   <v>      -0.25000000       0.45000000       0.05000000 </v>
   <v>      -0.15000000       0.45000000       0.05000000 </v>
   <v>      -0.05000000       0.45000000       0.05000000 </v>
   <v>      -0.45000000      -0.45000000       0.05000000 </v>
   <v>      -0.35000000      -0.45000000       0.05000000 </v>
   <v>      -0.25000000      -0.45000000       0.05000000 </v>
   <v>      -0.15000000      -0.45000000       0.05000000 </v>
   <v>      -0.35000000      -0.35000000       0.05000000 </v>
   <v>      -0.25000000      -0.35000000       0.05000000 </v>
   <v>      -0.15000000      -0.35000000       0.05000000 </v>
   <v>      -0.25000000      -0.25000000       0.05000000 </v>
   <v>      -0.15000000      -0.25000000       0.05000000 </v>
   <v>      -0.15000000      -0.15000000       0.05000000 </v>
   <v>       0.15000000       0.15000000       0.15000000 </v>
   <v>       0.25000000       0.15000000       0.15000000 </v>
   <v>       0.35000000       0.15000000       0.15000000 </v>
   <v>       0.45000000       0.15000000       0.15000000 </v>
   <v>      -0.45000000       0.15000000       0.15000000 </v>
   <v>      -0.35000000       0.15000000       0.15000000 </v>
   <v>      -0.25000000       0.15000000       0.15000000 </v>
   <v>      -0.15000000       0.15000000       0.15000000 </v>
   <v>       0.25000000       0.25000000       0.15000000 </v>
   <v>       0.35000000       0.25000000       0.15000000 </v>
   <v>       0.45000000       0.25000000       0.15000000 </v>
   <v>      -0.45000000       0.25000000       0.15000000 </v>
   <v>      -0.35000000       0.25000000       0.15000000 </v>
   <v>      -0.25000000       0.25000000       0.15000000 </v>
   <v>      -0.15000000       0.25000000       0.15000000 </v>
   <v>       0.35000000       0.35000000       0.15000000 </v>
   <v>       0.45000000       0.35000000       0.15000000 </v>
   <v>      -0.45000000       0.35000000       0.15000000 </v>
   <v>      -0.35000000       0.35000000       0.15000000 </v>
   <v>      -0.25000000       0.35000000       0.15000000 </v>
   <v>      -0.15000000       0.35000000       0.15000000 </v>
   <v>       0.45000000       0.45000000       0.15000000 </v>
   <v>      -0.45000000       0.45000000       0.15000000 </v>
   <v>      -0.35000000       0.45000000       0.15000000 </v>
   <v>      -0.25000000       0.45000000       0.15000000 </v>
   <v>      -0.15000000       0.45000000       0.15000000 </v>
   <v>      -0.45000000      -0.45000000       0.15000000 </v>
   <v>      -0.35000000      -0.45000000       0.15000000 </v>
   <v>      -0.25000000      -0.45000000       0.15000000 </v>
   <v>      -0.35000000      -0.35000000       0.15000000 </v>
   <v>      -0.25000000      -0.35000000       0.15000000 </v>
   <v>      -0.25000000      -0.25000000       0.15000000 </v>
   <v>       0.25000000       0.25000000       0.25000000 </v>
   <v>       0.35000000       0.25000000       0.25000000 </v>
   <v>       0.45000000       0.25000000       0.25000000 </v>
   <v>      -0.45000000       0.25000000       0.25000000 </v>
   <v>      -0.35000000       0.25000000       0.25000000 </v>
   <v>      -0.25000000       0.25000000       0.25000000 </v>
   <v>       0.35000000       0.35000000       0.25000000 </v>
   <v>       0.45000000       0.35000000       0.25000000 </v>
   <v>      -0.45000000       0.35000000       0.25000000 </v>
   <v>      -0.35000000       0.35000000       0.25000000 </v>
   <v>      -0.25000000       0.35000000       0.25000000 </v>
   <v>       0.45000000       0.45000000       0.25000000 </v>
   <v>      -0.45000000       0.45000000       0.25000000 </v>
   <v>      -0.35000000       0.45000000       0.25000000 </v>
   <v>      -0.25000000       0.45000000       0.25000000 </v>
   <v>      -0.45000000      -0.45000000       0.25000000 </v>
   <v>      -0.35000000      -0.45000000       0.25000000 </v>
   <v>      -0.35000000      -0.35000000       0.25000000 </v>
   <v>       0.35000000       0.35000000       0.35000000 </v>
   <v>       0.45000000       0.35000000       0.35000000 </v>
   <v>      -0.45000000       0.35000000       0.35000000 </v>
   <v>      -0.35000000       0.35000000       0.35000000 </v>
   <v>       0.45000000       0.45000000       0.35000000 </v>
   <v>      -0.45000000       0.45000000       0.35000000 </v>
   <v>      -0.35000000       0.45000000       0.35000000 </v>
   <v>      -0.45000000      -0.45000000       0.35000000 </v>
   <v>       0.45000000       0.45000000       0.45000000 </v>
   <v>      -0.45000000       0.45000000       0.45000000 </v>
  </varray>
  <varray name="weights" >
   <v>       0.00200000 </v>
   <v>       0.00600000 </v>
   <v>       0.00600000 </v>
   <v>       0.00600000 </v>
   <v>       0.00600000 </v>
   <v>       0.00600000 </v>
   <v>       0.00600000 </v>
   <v>       0.00600000 </v>
   <v>       0.00600000 </v>
   <v>       0.00600000 </v>
   <v>       0.00600000 </v>
   <v>       0.01200000 </v>
   <v>       0.01200000 </v>
   <v>       0.01200000 </v>
   <v>       0.01200000 </v>
   <v>       0.01200000 </v>
   <v>       0.01200000 </v>
   <v>       0.01200000 </v>
   <v>       0.01200000 </v>
   <v>       0.00600000 </v>
   <v>       0.01200000 </v>
   <v>       0.01200000 </v>
   <v>       0.01200000 </v>
   <v>       0.01200000 </v>
   <v>       0.01200000 </v>
   <v>       0.01200000 </v>
   <v>       0.01200000 </v>
   <v>       0.00600000 </v>
   <v>       0.01200000 </v>
   <v>       0.01200000 </v>
   <v>       0.01200000 </v>
   <v>       0.01200000 </v>
   <v>       0.01200000 </v>
   <v>       0.01200000 </v>
   <v>       0.00600000 </v>
   <v>       0.01200000 </v>
   <v>       0.01200000 </v>
   <v>       0.01200000 </v>
   <v>       0.01200000 </v>
   <v>       0.01200000 </v>
   <v>       0.00600000 </v>
   <v>       0.01200000 </v>
   <v>       0.01200000 </v>
   <v>       0.01200000 </v>
   <v>       0.00600000 </v>
   <v>       0.01200000 </v>
   <v>       0.01200000 </v>
   <v>       0.00600000 </v>
   <v>       0.01200000 </v>
   <v>       0.00600000 </v>
   <v>       0.00200000 </v>
   <v>       0.00600000 </v>
   <v>       0.00600000 </v>
   <v>       0.00600000 </v>
   <v>       0.00600000 </v>
   <v>       0.00600000 </v>
   <v>       0.00600000 </v>
   <v>       0.00600000 </v>
   <v>       0.00600000 </v>
   <v>       0.01200000 </v>
   <v>       0.01200000 </v>
   <v>       0.01200000 </v>
   <v>       0.01200000 </v>
   <v>       0.01200000 </v>
   <v>       0.01200000 </v>
   <v>       0.00600000 </v>
   <v>       0.01200000 </v>
   <v>       0.01200000 </v>
   <v>       0.01200000 </v>
   <v>       0.01200000 </v>
   <v>       0.01200000 </v>
   <v>       0.00600000 </v>
   <v>       0.01200000 </v>
   <v>       0.01200000 </v>
   <v>       0.01200000 </v>
   <v>       0.01200000 </v>
   <v>       0.00600000 </v>
   <v>       0.01200000 </v>
   <v>       0.01200000 </v>
   <v>       0.00600000 </v>
   <v>       0.01200000 </v>
   <v>       0.00600000 </v>
   <v>       0.00200000 </v>
   <v>       0.00600000 </v>
   <v>       0.00600000 </v>
   <v>       0.00600000 </v>
   <v>       0.00600000 </v>
   <v>       0.00600000 </v>
   <v>       0.00600000 </v>
   <v>       0.01200000 </v>
   <v>       0.01200000 </v>
   <v>       0.01200000 </v>
   <v>       0.01200000 </v>
   <v>       0.00600000 </v>
   <v>       0.01200000 </v>
   <v>       0.01200000 </v>
   <v>       0.01200000 </v>
   <v>       0.00600000 </v>
   <v>       0.01200000 </v>
   <v>       0.00600000 </v>
   <v>       0.00200000 </v>
   <v>       0.00600000 </v>
   <v>       0.00600000 </v>
   <v>       0.00600000 </v>
   <v>       0.00600000 </v>
   <v>       0.01200000 </v>
   <v>       0.01200000 </v>
   <v>       0.00600000 </v>
   <v>       0.00200000 </v>
   <v>       0.00600000 </v>
  </varray>
 </kpoints>
 <parameters>
  <separator name="general" >
   <i type="string" name="SYSTEM">Pt-fcc</i>
   <i type="logical" name="LCOMPAT"> F  </i>
  </separator>
  <separator name="electronic" >
   <i type="string" name="PREC">accura</i>
   <i name="ENMAX">    425.00000000</i>
   <i name="ENAUG">    527.01400000</i>
   <i name="EDIFF">      0.00000100</i>
   <i type="int" name="IALGO">    38</i>
   <i type="int" name="IWAVPR">    11</i>
   <i type="int" name="NBANDS">    24</i>
   <i type="int" name="NBANDSLOW">    -1</i>
   <i type="int" name="NBANDSHIGH">    -1</i>
   <i name="NELECT">     16.00000000</i>
   <i type="int" name="TURBO">     0</i>
   <i type="int" name="IRESTART">     0</i>
   <i type="int" name="NREBOOT">     0</i>
   <i type="int" name="NMIN">     0</i>
   <i name="EREF">      0.00000000</i>
   <separator name="electronic smearing" >
    <i type="int" name="ISMEAR">     0</i>
    <i name="SIGMA">      0.05000000</i>
    <i name="KSPACING">      0.50000000</i>
    <i type="logical" name="KGAMMA"> T  </i>
    <i type="logical" name="KBLOWUP"> T  </i>
   </separator>
   <separator name="electronic projectors" >
    <i type="logical" name="LREAL"> F  </i>
    <v name="ROPT">      0.00000000</v>
    <i type="int" name="LMAXPAW">  -100</i>
    <i type="int" name="LMAXMIX">     2</i>
    <i type="logical" name="NLSPLINE"> F  </i>
   </separator>
   <separator name="electronic startup" >
    <i type="int" name="ISTART">     0</i>
    <i type="int" name="ICHARG">     2</i>
    <i type="int" name="INIWAV">     1</i>
   </separator>
   <separator name="electronic spin" >
    <i type="int" name="ISPIN">     1</i>
    <i type="logical" name="LNONCOLLINEAR"> F  </i>
    <v name="MAGMOM">      1.00000000</v>
    <i name="NUPDOWN">     -1.00000000</i>
    <i type="logical" name="LSORBIT"> F  </i>
    <v name="SAXIS">      0.00000000      0.00000000      1.00000000</v>
    <i type="logical" name="LSPIRAL"> F  </i>
    <v name="QSPIRAL">      0.00000000      0.00000000      0.00000000</v>
    <i type="logical" name="LZEROZ"> F  </i>
   </separator>
   <separator name="electronic exchange-correlation" >
    <i type="logical" name="LASPH"> F  </i>
    <i type="logical" name="LMETAGGA"> F  </i>
   </separator>
   <separator name="electronic convergence" >
    <i type="int" name="NELM">   100</i>
    <i type="int" name="NELMDL">    -5</i>
    <i type="int" name="NELMIN">     2</i>
    <i name="ENINI">    425.00000000</i>
    <separator name="electronic convergence detail" >
     <i type="logical" name="LDIAG"> T  </i>
     <i type="logical" name="LSUBROT"> F  </i>
     <i name="WEIMIN">      0.00100000</i>
     <i name="EBREAK">      0.00000001</i>
     <i name="DEPER">      0.30000000</i>
     <i type="int" name="NRMM">     4</i>
     <i name="TIME">      0.40000000</i>
    </separator>
   </separator>
   <separator name="electronic mixer" >
    <i name="AMIX">      0.40000000</i>
    <i name="BMIX">      1.00000000</i>
    <i name="AMIN">      0.10000000</i>
    <i name="AMIX_MAG">      1.60000000</i>
    <i name="BMIX_MAG">      1.00000000</i>
    <separator name="electronic mixer details" >
     <i type="int" name="IMIX">     4</i>
     <i type="logical" name="MIXFIRST"> F  </i>
     <i type="int" name="MAXMIX">   -45</i>
     <i name="WC">    100.00000000</i>
     <i type="int" name="INIMIX">     1</i>
     <i type="int" name="MIXPRE">     1</i>
     <i type="int" name="MREMOVE">     5</i>
    </separator>
   </separator>
   <separator name="electronic dipolcorrection" >
    <i type="logical" name="LDIPOL"> F  </i>
    <i type="logical" name="LMONO"> F  </i>
    <i type="int" name="IDIPOL">     0</i>
    <i name="EPSILON">      1.00000000</i>
    <v name="DIPOL">   -100.00000000   -100.00000000   -100.00000000</v>
    <i name="EFIELD">      0.00000000</i>
   </separator>
  </separator>
  <separator name="grids" >
   <i type="int" name="NGX">    18</i>
   <i type="int" name="NGY">    18</i>
   <i type="int" name="NGZ">    18</i>
   <i type="int" name="NGXF">    36</i>
   <i type="int" name="NGYF">    36</i>
   <i type="int" name="NGZF">    36</i>
   <i type="logical" name="ADDGRID"> F  </i>
  </separator>
  <separator name="ionic" >
   <i type="int" name="NSW">   100</i>
   <i type="int" name="IBRION">     2</i>
   <i type="int" name="MDALGO">     0</i>
   <i type="int" name="ISIF">     2</i>
   <i name="PSTRESS">      0.00000000</i>
   <i name="EDIFFG">     -0.02000000</i>
   <i type="int" name="NFREE">     1</i>
   <i name="POTIM">      0.50000000</i>
   <i name="SMASS">     -3.00000000</i>
   <i name="SCALEE">      1.00000000</i>
  </separator>
  <separator name="ionic md" >
   <i name="TEBEG">      0.00010000</i>
   <i name="TEEND">      0.00010000</i>
   <i type="int" name="NBLOCK">     1</i>
   <i type="int" name="KBLOCK">   100</i>
   <i type="int" name="NPACO">   256</i>
   <i name="APACO">     10.00000000</i>
  </separator>
  <separator name="symmetry" >
   <i type="int" name="ISYM">     1</i>
   <i name="SYMPREC">      0.00001000</i>
  </separator>
  <separator name="dos" >
   <i type="int" name="LORBIT">    11</i>
   <v name="RWIGS">     -1.00000000</v>
   <i type="int" name="NEDOS">   301</i>
   <i name="EMIN">     10.00000000</i>
   <i name="EMAX">    -10.00000000</i>
   <i name="EFERMI">      0.00000000</i>
  </separator>
  <separator name="writing" >
   <i type="int" name="NWRITE">     2</i>
   <i type="logical" name="LWAVE"> T  </i>
   <i type="logical" name="LDOWNSAMPLE"> F  </i>
   <i type="logical" name="LCHARG"> T  </i>
   <i type="logical" name="LPARD"> F  </i>
   <i type="logical" name="LVTOT"> F  </i>
   <i type="logical" name="LVHAR"> F  </i>
   <i type="logical" name="LELF"> F  </i>
   <i type="logical" name="LOPTICS"> F  </i>
   <v name="STM">      0.00000000      0.00000000      0.00000000      0.00000000      0.00000000      0.00000000      0.00000000</v>
  </separator>
  <separator name="performance" >
   <i type="int" name="NPAR">    24</i>
   <i type="int" name="NSIM">     4</i>
   <i type="int" name="NBLK">    -1</i>
   <i type="logical" name="LPLANE"> T  </i>
   <i type="logical" name="LSCALAPACK"> T  </i>
   <i type="logical" name="LSCAAWARE"> T  </i>
   <i type="logical" name="LSCALU"> F  </i>
   <i type="logical" name="LASYNC"> F  </i>
   <i type="logical" name="LORBITALREAL"> F  </i>
  </separator>
  <separator name="miscellaneous" >
   <i type="int" name="IDIOT">     3</i>
   <i type="int" name="PHON_NSTRUCT">    -1</i>
   <i type="logical" name="LMUSIC"> F  </i>
   <v name="POMASS">    195.08000000</v>
   <v name="DARWINR">      0.00000000</v>
   <v name="DARWINV">      1.00000000</v>
   <i type="logical" name="LCORR"> T  </i>
  </separator>
  <i type="logical" name="GGA_COMPAT"> T  </i>
  <i type="logical" name="LBERRY"> F  </i>
  <i type="int" name="ICORELEVEL">     0</i>
  <i type="logical" name="LDAU"> F  </i>
  <i type="int" name="I_CONSTRAINED_M">     0</i>
  <separator name="electronic exchange-correlation" >
   <i type="string" name="GGA">--</i>
   <i type="int" name="VOSKOWN">     0</i>
   <i type="logical" name="LHFCALC"> F  </i>
   <i type="string" name="PRECFOCK"></i>
   <i type="logical" name="LSYMGRAD"> F  </i>
   <i type="logical" name="LHFONE"> F  </i>
   <i type="logical" name="LRHFCALC"> F  </i>
   <i type="logical" name="LTHOMAS"> F  </i>
   <i type="logical" name="LMODELHF"> F  </i>
   <i type="logical" name="LFOCKACE"> F  </i>
   <i name="ENCUT4O">     -1.00000000</i>
   <i type="int" name="EXXOEP">     0</i>
   <i type="int" name="FOURORBIT">     0</i>
   <i name="AEXX">      0.00000000</i>
   <i name="HFALPHA">      0.00000000</i>
   <i name="MCALPHA">      0.00000000</i>
   <i name="ALDAX">      1.00000000</i>
   <i name="AGGAX">      1.00000000</i>
   <i name="ALDAC">      1.00000000</i>
   <i name="AGGAC">      1.00000000</i>
   <i type="int" name="NKREDX">     1</i>
   <i type="int" name="NKREDY">     1</i>
   <i type="int" name="NKREDZ">     1</i>
   <i type="logical" name="SHIFTRED"> F  </i>
   <i type="logical" name="ODDONLY"> F  </i>
   <i type="logical" name="EVENONLY"> F  </i>
   <i type="int" name="LMAXFOCK">     0</i>
   <i type="int" name="NMAXFOCKAE">     0</i>
   <i type="logical" name="LFOCKAEDFT"> F  </i>
   <i name="HFSCREEN">      0.00000000</i>
   <i name="HFSCREENC">      0.00000000</i>
   <i type="int" name="NBANDSGWLOW">     0</i>
  </separator>
  <separator name="vdW DFT" >
   <i type="logical" name="LUSE_VDW"> F  </i>
   <i name="Zab_VDW">     -0.84910000</i>
   <i name="PARAM1">      0.12340000</i>
   <i name="PARAM2">      1.00000000</i>
   <i name="PARAM3">      0.00000000</i>
  </separator>
  <separator name="model GW" >
   <i type="int" name="MODEL_GW">     0</i>
   <i name="MODEL_EPS0">      8.75179621</i>
   <i name="MODEL_ALPHA">      1.00000000</i>
  </separator>
  <separator name="linear response parameters" >
   <i type="logical" name="LEPSILON"> F  </i>
   <i type="logical" name="LRPA"> F  </i>
   <i type="logical" name="LNABLA"> F  </i>
   <i type="logical" name="LVEL"> F  </i>
   <i name="CSHIFT">      0.10000000</i>
   <i name="OMEGAMAX">     -1.00000000</i>
   <i name="DEG_THRESHOLD">      0.00200000</i>
   <i name="RTIME">     -0.10000000</i>
   <i name="WPLASMAI">      0.00000000</i>
   <v name="DFIELD">      0.00000000      0.00000000      0.00000000</v>
   <v name="WPLASMA">      0.00000000      0.00000000      0.00000000      0.00000000      0.00000000      0.00000000      0.00000000      0.00000000      0.00000000</v>
  </separator>
  <separator name="orbital magnetization" >
   <i type="logical" name="NUCIND"> F  </i>
   <v name="MAGPOS">      0.00000000      0.00000000      0.00000000</v>
   <i type="logical" name="LNICSALL"> T  </i>
   <i type="logical" name="ORBITALMAG"> F  </i>
   <i type="logical" name="LMAGBLOCH"> F  </i>
   <i type="logical" name="LCHIMAG"> F  </i>
   <i type="logical" name="LGAUGE"> T  </i>
   <i type="int" name="MAGATOM">     0</i>
   <v name="MAGDIPOL">      0.00000000      0.00000000      0.00000000</v>
   <v name="AVECCONST">      0.00000000      0.00000000      0.00000000</v>
  </separator>
  <separator name="response functions" >
   <i type="logical" name="LFINITE_TEMPERATURE"> F  </i>
   <i type="logical" name="LADDER"> F  </i>
   <i type="logical" name="LRPAFORCE"> F  </i>
   <i type="logical" name="LFXC"> F  </i>
   <i type="logical" name="LHARTREE"> T  </i>
   <i type="int" name="IBSE">     0</i>
   <v type="int" name="KPOINT">    -1     0     0     0</v>
   <i type="logical" name="LTCTC"> F  </i>
   <i type="logical" name="LTCTE"> F  </i>
   <i type="logical" name="LTETE"> F  </i>
   <i type="logical" name="LTRIPLET"> F  </i>
   <i type="logical" name="LFXCEPS"> F  </i>
   <i type="logical" name="LFXHEG"> F  </i>
   <i type="int" name="NATURALO">     2</i>
   <i type="logical" name="LHOLEGF"> F  </i>
   <i type="logical" name="L2ORDER"> F  </i>
   <i type="logical" name="LDMP1"> F  </i>
   <i type="logical" name="LMP2LT"> F  </i>
   <i type="logical" name="LSMP2LT"> F  </i>
   <i type="logical" name="LGWLF"> F  </i>
   <i name="ENCUTGW">     -2.00000000</i>
   <i name="ENCUTGWSOFT">     -2.00000000</i>
   <i name="ENCUTLF">     -1.00000000</i>
   <i type="logical" name="LESF_SPLINES"> F  </i>
   <i type="int" name="LMAXMP2">    -1</i>
   <i name="SCISSOR">      0.00000000</i>
   <i type="int" name="NOMEGA">     0</i>
   <i type="int" name="NOMEGAR">     0</i>
   <i type="int" name="NBANDSGW">    -1</i>
   <i type="int" name="NBANDSO">    -1</i>
   <i type="int" name="NBANDSV">    -1</i>
   <i type="int" name="NELMGW">     1</i>
   <i type="int" name="NELMHF">     1</i>
   <i type="int" name="DIM">     3</i>
   <i type="int" name="IESPILON">     4</i>
   <i type="int" name="ANTIRES">     0</i>
   <i name="OMEGAMAX">    -30.00000000</i>
   <i name="OMEGAMIN">    -30.00000000</i>
   <i name="OMEGATL">   -200.00000000</i>
   <i type="int" name="OMEGAGRID">     0</i>
   <i name="CSHIFT">     -0.10000000</i>
   <i type="logical" name="LSELFENERGY"> F  </i>
   <i type="logical" name="LSPECTRAL"> F  </i>
   <i type="logical" name="LSPECTRALGW"> F  </i>
   <i type="logical" name="LSINGLES"> F  </i>
   <i type="logical" name="LFERMIGW"> F  </i>
   <i type="logical" name="ODDONLYGW"> F  </i>
   <i type="logical" name="EVENONLYGW"> F  </i>
   <i type="int" name="NKREDLFX">     1</i>
   <i type="int" name="NKREDLFY">     1</i>
   <i type="int" name="NKREDLFZ">     1</i>
   <i type="int" name="MAXMEM">  2800</i>
   <i type="int" name="TELESCOPE">     0</i>
   <i type="int" name="NTAUPAR">    -1</i>
   <i type="int" name="NOMEGAPAR">    -1</i>
   <i name="DAMP_NEWTON">      0.80000001</i>
   <i name="LAMBDA">      1.00000000</i>
  </separator>
  <separator name="External order field" >
   <i name="OFIELD_KAPPA">      0.00000000</i>
   <v name="OFIELD_K">      0.00000000      0.00000000      0.00000000</v>
   <i name="OFIELD_Q6_NEAR">      0.00000000</i>
   <i name="OFIELD_Q6_FAR">      0.00000000</i>
   <i name="OFIELD_A">      0.00000000</i>
  </separator>
  <separator name="optional k-points parameters" >
   <i type="int" name="KPOINTS_OPT_MODE">     1</i>
   <i type="logical" name="LKPOINTS_OPT"> F  </i>
  </separator>
 </parameters>
 <atominfo>
  <atoms>       1 </atoms>
  <types>       1 </types>
  <array name="atoms" >
   <dimension dim="1">ion</dimension>
   <field type="string">element</field>
   <field type="int">atomtype</field>
   <set>
    <rc><c>Pt</c><c>   1</c></rc>
   </set>
  </array>
  <array name="atomtypes" >
   <dimension dim="1">type</dimension>
   <field type="int">atomspertype</field>
   <field type="string">element</field>
   <field>mass</field>
   <field>valence</field>
   <field type="string">pseudopotential</field>
   <set>
    <rc><c>   1</c><c>Pt</c><c>    195.08000000</c><c>     16.00000000</c><c>  PAW_PBE Pt_pv 12Dec2005               </c></rc>
   </set>
  </array>
 </atominfo>
 <structure name="initialpos" >
  <crystal>
   <varray name="basis" >
    <v>       0.00000000       1.93927166       1.93927166 </v>
    <v>       1.93927166       0.00000000       1.93927166 </v>
    <v>       1.93927166       1.93927166       0.00000000 </v>
   </varray>
   <i name="volume">     14.58632702 </i>
   <varray name="rec_basis" >
    <v>      -0.25782876       0.25782876       0.25782876 </v>
    <v>       0.25782876      -0.25782876       0.25782876 </v>
    <v>       0.25782876       0.25782876      -0.25782876 </v>
   </varray>
  </crystal>
  <varray name="positions" >
   <v>       0.00000000       0.00000000       0.00000000 </v>
  </varray>
 </structure>
 <calculation>
  <scstep>
   <time name="dav">    0.47    0.47</time>
   <time name="total">    0.48    0.48</time>
   <energy>
    <i name="alphaZ">    164.49093433 </i>
    <i name="ewald">  -2178.83163511 </i>
    <i name="hartreedc">   -382.34788041 </i>
    <i name="XCdc">     64.06448227 </i>
    <i name="pawpsdc">   2065.75261637 </i>
    <i name="pawaedc">  -2030.83594803 </i>
    <i name="eentropy">     -0.00086383 </i>
    <i name="bandstr">   -114.57929273 </i>
    <i name="atom">   2428.19501064 </i>
    <i name="e_fr_energy">     15.90742351 </i>
    <i name="e_wo_entrp">     15.90828733 </i>
    <i name="e_0_energy">     15.90785542 </i>
   </energy>
  </scstep>
  <scstep>
   <time name="dav">    0.64    0.64</time>
   <time name="total">    0.64    0.64</time>
   <energy>
    <i name="e_fr_energy">     -6.33027373 </i>
    <i name="e_wo_entrp">     -6.32865572 </i>
    <i name="e_0_energy">     -6.32946473 </i>
   </energy>
  </scstep>
  <scstep>
   <time name="dav">    0.63    0.64</time>
   <time name="total">    0.63    0.64</time>
   <energy>
    <i name="e_fr_energy">     -6.35957895 </i>
    <i name="e_wo_entrp">     -6.35795841 </i>
    <i name="e_0_energy">     -6.35876868 </i>
   </energy>
  </scstep>
  <scstep>
   <time name="dav">    0.90    0.90</time>
   <time name="total">    0.90    0.90</time>
   <energy>
    <i name="e_fr_energy">     -6.35960409 </i>
    <i name="e_wo_entrp">     -6.35798355 </i>
    <i name="e_0_energy">     -6.35879382 </i>
   </energy>
  </scstep>
  <scstep>
   <time name="dav">    0.64    0.64</time>
   <time name="total">    0.65    0.65</time>
   <energy>
    <i name="e_fr_energy">     -6.35960409 </i>
    <i name="e_wo_entrp">     -6.35798355 </i>
    <i name="e_0_energy">     -6.35879382 </i>
   </energy>
  </scstep>
  <scstep>
   <time name="dav">    0.50    0.50</time>
   <time name="total">    0.52    0.52</time>
   <energy>
    <i name="e_fr_energy">     -6.03886979 </i>
    <i name="e_wo_entrp">     -6.03670366 </i>
    <i name="e_0_energy">     -6.03778673 </i>
   </energy>
  </scstep>
  <scstep>
   <time name="dav">    0.78    0.79</time>
   <time name="total">    0.80    0.80</time>
   <energy>
    <i name="e_fr_energy">     -6.01736439 </i>
    <i name="e_wo_entrp">     -6.01509063 </i>
    <i name="e_0_energy">     -6.01622751 </i>
   </energy>
  </scstep>
  <scstep>
   <time name="dav">    0.46    0.46</time>
   <time name="total">    0.47    0.48</time>
   <energy>
    <i name="e_fr_energy">     -6.01568903 </i>
    <i name="e_wo_entrp">     -6.01339269 </i>
    <i name="e_0_energy">     -6.01454086 </i>
   </energy>
  </scstep>
  <scstep>
   <time name="dav">    0.70    0.71</time>
   <time name="total">    0.72    0.72</time>
   <energy>
    <i name="e_fr_energy">     -6.01560302 </i>
    <i name="e_wo_entrp">     -6.01331045 </i>
    <i name="e_0_energy">     -6.01445674 </i>
   </energy>
  </scstep>
  <scstep>
   <time name="dav">    0.74    0.74</time>
   <time name="total">    0.75    0.76</time>
   <energy>
    <i name="e_fr_energy">     -6.01560787 </i>
    <i name="e_wo_entrp">     -6.01331654 </i>
    <i name="e_0_energy">     -6.01446220 </i>
   </energy>
  </scstep>
  <scstep>
   <time name="dav">    0.28    0.28</time>
   <time name="total">    0.29    0.29</time>
   <energy>
    <i name="alphaZ">    164.49093433 </i>
    <i name="ewald">  -2178.83163511 </i>
    <i name="hartreedc">   -363.36993371 </i>
    <i name="XCdc">     63.22028318 </i>
    <i name="pawpsdc">   2427.03095309 </i>
    <i name="pawaedc">  -2394.97617484 </i>
    <i name="eentropy">     -0.00229133 </i>
    <i name="bandstr">   -151.77275406 </i>
    <i name="atom">   2428.19501064 </i>
    <i name="e_fr_energy">     -6.01560782 </i>
    <i name="e_wo_entrp">     -6.01331649 </i>
    <i name="e_0_energy">     -6.01446215 </i>
   </energy>
  </scstep>
  <structure>
   <crystal>
    <varray name="basis" >
     <v>       0.00000000       1.93927166       1.93927166 </v>
     <v>       1.93927166       0.00000000       1.93927166 </v>
     <v>       1.93927166       1.93927166       0.00000000 </v>
    </varray>
    <i name="volume">     14.58632702 </i>
    <varray name="rec_basis" >
     <v>      -0.25782876       0.25782876       0.25782876 </v>
     <v>       0.25782876      -0.25782876       0.25782876 </v>
     <v>       0.25782876       0.25782876      -0.25782876 </v>
    </varray>
   </crystal>
   <varray name="positions" >
    <v>       0.00000000       0.00000000       0.00000000 </v>
   </varray>
  </structure>
  <varray name="forces" >
   <v>      -0.00000000      -0.00000000       0.00000000 </v>
  </varray>
  <varray name="stress" >
   <v>     185.41628647       0.00000000       0.00000000 </v>
   <v>       0.00000000     185.41628647       0.00000000 </v>
   <v>       0.00000000       0.00000000     185.41628647 </v>
  </varray>
  <energy>
   <i name="e_fr_energy">     -6.01560782 </i>
   <i name="e_wo_entrp">     -6.01331649 </i>
   <i name="e_0_energy">     -6.01446215 </i>
  </energy>
  <time name="totalsc">    7.06    7.24</time>
  <eigenvalues>
   <array>
    <dimension dim="1">band</dimension>
    <dimension dim="2">kpoint</dimension>
    <dimension dim="3">spin</dimension>
    <field>eigene</field>
    <field>occ</field>
    <set>
     <set comment="spin 1">
      <set comment="kpoint 1">
       <r>  -39.9145    1.0000 </r>
       <r>  -39.9022    1.0000 </r>
       <r>  -39.9022    1.0000 </r>
       <r>    2.2129    1.0000 </r>
       <r>    8.6789    1.0000 </r>
       <r>    8.7712    1.0000 </r>
       <r>    8.7712    1.0000 </r>
       <r>   10.9922    1.0000 </r>
       <r>   10.9922    1.0000 </r>
       <r>   27.4179    0.0000 </r>
       <r>   31.8492    0.0000 </r>
       <r>   32.5674    0.0000 </r>
       <r>   32.5674    0.0000 </r>
       <r>   38.5247    0.0000 </r>
       <r>   43.9969    0.0000 </r>
       <r>   44.7523    0.0000 </r>
       <r>   44.7523    0.0000 </r>
       <r>   48.2930    0.0000 </r>
       <r>   48.2930    0.0000 </r>
       <r>   49.2437    0.0000 </r>
       <r>   53.2954    0.0000 </r>
       <r>   54.9468    0.0000 </r>
       <r>   54.9468    0.0000 </r>
       <r>   62.2116    0.0000 </r>
      </set>
      <set comment="kpoint 2">
       <r>  -39.9790    1.0000 </r>
       <r>  -39.9218    1.0000 </r>
       <r>  -39.9082    1.0000 </r>
       <r>    2.7538    1.0000 </r>
       <r>    8.4301    1.0000 </r>
       <r>    8.9620    1.0000 </r>
       <r>    9.0035    1.0000 </r>
       <r>   10.7477    1.0000 </r>
       <r>   11.0512    1.0000 </r>
       <r>   28.2264    0.0000 </r>
       <r>   30.1419    0.0000 </r>
       <r>   32.7517    0.0000 </r>
       <r>   33.7396    0.0000 </r>
       <r>   39.4233    0.0000 </r>
       <r>   41.8538    0.0000 </r>
       <r>   42.2242    0.0000 </r>
       <r>   43.7602    0.0000 </r>
       <r>   46.5106    0.0000 </r>
       <r>   49.7229    0.0000 </r>
       <r>   52.0471    0.0000 </r>
       <r>   53.2801    0.0000 </r>
       <r>   53.6744    0.0000 </r>
       <r>   56.1237    0.0000 </r>
       <r>   62.8609    0.0000 </r>
      </set>
      <set comment="kpoint 3">
       <r>  -40.1195    1.0000 </r>
       <r>  -39.9470    1.0000 </r>
       <r>  -39.9269    1.0000 </r>
       <r>    3.9015    1.0000 </r>
       <r>    8.1950    1.0000 </r>
       <r>    9.1603    1.0000 </r>
       <r>    9.2023    1.0000 </r>
       <r>   10.7276    1.0000 </r>
       <r>   11.3310    1.0000 </r>
       <r>   27.3235    0.0000 </r>
       <r>   29.3066    0.0000 </r>
       <r>   34.0040    0.0000 </r>
       <r>   35.9513    0.0000 </r>
       <r>   36.0220    0.0000 </r>
       <r>   39.3969    0.0000 </r>
       <r>   39.6296    0.0000 </r>
       <r>   46.0944    0.0000 </r>
       <r>   46.8908    0.0000 </r>
       <r>   50.3019    0.0000 </r>
       <r>   52.2620    0.0000 </r>
       <r>   53.2794    0.0000 </r>
       <r>   55.0387    0.0000 </r>
       <r>   56.7271    0.0000 </r>
       <r>   63.1807    0.0000 </r>
      </set>
      <set comment="kpoint 4">
       <r>  -40.2792    1.0000 </r>
       <r>  -39.9714    1.0000 </r>
       <r>  -39.9509    1.0000 </r>
       <r>    4.8913    1.0000 </r>
       <r>    8.8067    1.0000 </r>
       <r>    8.9966    1.0000 </r>
       <r>    9.0315    1.0000 </r>
       <r>   11.4336    1.0000 </r>
       <r>   12.1278    1.0000 </r>
       <r>   23.9523    0.0000 </r>
       <r>   28.4848    0.0000 </r>
       <r>   33.4891    0.0000 </r>
       <r>   35.7449    0.0000 </r>
       <r>   36.7835    0.0000 </r>
       <r>   38.7467    0.0000 </r>
       <r>   39.2452    0.0000 </r>
       <r>   47.2744    0.0000 </r>
       <r>   49.5846    0.0000 </r>
       <r>   51.6280    0.0000 </r>
       <r>   52.7076    0.0000 </r>
       <r>   53.2820    0.0000 </r>
       <r>   55.5712    0.0000 </r>
       <r>   57.4038    0.0000 </r>
       <r>   62.2039    0.0000 </r>
      </set>
      <set comment="kpoint 5">
       <r>  -40.3963    1.0000 </r>
       <r>  -39.9863    1.0000 </r>
       <r>  -39.9720    1.0000 </r>
       <r>    5.1207    1.0000 </r>
       <r>    8.6834    1.0000 </r>
       <r>    8.7896    1.0000 </r>
       <r>   10.6517    1.0000 </r>
       <r>   12.3447    1.0000 </r>
       <r>   13.0583    0.0000 </r>
       <r>   20.3629    0.0000 </r>
       <r>   27.3127    0.0000 </r>
       <r>   31.9042    0.0000 </r>
       <r>   32.9459    0.0000 </r>
       <r>   39.9015    0.0000 </r>
       <r>   41.0874    0.0000 </r>
       <r>   41.5845    0.0000 </r>
       <r>   47.8407    0.0000 </r>
       <r>   49.3188    0.0000 </r>
       <r>   50.5320    0.0000 </r>
       <r>   53.2860    0.0000 </r>
       <r>   55.0549    0.0000 </r>
       <r>   57.8853    0.0000 </r>
       <r>   58.0192    0.0000 </r>
       <r>   59.2867    0.0000 </r>
      </set>
      <set comment="kpoint 6">
       <r>  -40.4288    1.0000 </r>
       <r>  -39.9865    1.0000 </r>
       <r>  -39.9811    1.0000 </r>
       <r>    5.1187    1.0000 </r>
       <r>    8.5869    1.0000 </r>
       <r>    8.7338    1.0000 </r>
       <r>   11.4069    1.0000 </r>
       <r>   12.7963    0.1646 </r>
       <r>   13.4788    0.0000 </r>
       <r>   18.8704    0.0000 </r>
       <r>   27.0037    0.0000 </r>
       <r>   31.7689    0.0000 </r>
       <r>   31.8053    0.0000 </r>
       <r>   41.3306    0.0000 </r>
       <r>   41.5721    0.0000 </r>
       <r>   43.0656    0.0000 </r>
       <r>   48.0435    0.0000 </r>
       <r>   48.8047    0.0000 </r>
       <r>   49.1930    0.0000 </r>
       <r>   53.2912    0.0000 </r>
       <r>   56.1462    0.0000 </r>
       <r>   56.7437    0.0000 </r>
       <r>   58.9875    0.0000 </r>
       <r>   59.7344    0.0000 </r>
      </set>
      <set comment="kpoint 7">
       <r>  -40.3656    1.0000 </r>
       <r>  -39.9763    1.0000 </r>
       <r>  -39.9723    1.0000 </r>
       <r>    5.0963    1.0000 </r>
       <r>    8.7264    1.0000 </r>
       <r>    8.8921    1.0000 </r>
       <r>    9.9730    1.0000 </r>
       <r>   12.3955    1.0000 </r>
       <r>   12.4775    1.0000 </r>
       <r>   21.4873    0.0000 </r>
       <r>   27.6209    0.0000 </r>
       <r>   32.5524    0.0000 </r>
       <r>   33.4128    0.0000 </r>
       <r>   39.5891    0.0000 </r>
       <r>   39.7583    0.0000 </r>
       <r>   40.7796    0.0000 </r>
       <r>   47.1414    0.0000 </r>
       <r>   50.3643    0.0000 </r>
       <r>   51.0028    0.0000 </r>
       <r>   53.2824    0.0000 </r>
       <r>   54.9592    0.0000 </r>
       <r>   56.0411    0.0000 </r>
       <r>   58.0571    0.0000 </r>
       <r>   60.0297    0.0000 </r>
      </set>
      <set comment="kpoint 8">
       <r>  -40.2286    1.0000 </r>
       <r>  -39.9587    1.0000 </r>
       <r>  -39.9488    1.0000 </r>
       <r>    4.6449    1.0000 </r>
       <r>    8.4425    1.0000 </r>
       <r>    9.0321    1.0000 </r>
       <r>    9.1421    1.0000 </r>
       <r>   11.2704    1.0000 </r>
       <r>   11.7143    1.0000 </r>
       <r>   25.1497    0.0000 </r>
       <r>   28.9533    0.0000 </r>
       <r>   34.2561    0.0000 </r>
       <r>   35.5143    0.0000 </r>
       <r>   37.2680    0.0000 </r>
       <r>   37.8720    0.0000 </r>
       <r>   38.6485    0.0000 </r>
       <r>   46.8183    0.0000 </r>
       <r>   49.6452    0.0000 </r>
       <r>   50.6109    0.0000 </r>
       <r>   52.9675    0.0000 </r>
       <r>   53.2796    0.0000 </r>
       <r>   54.2843    0.0000 </r>
       <r>   57.8132    0.0000 </r>
       <r>   63.3534    0.0000 </r>
      </set>
      <set comment="kpoint 9">
       <r>  -40.0666    1.0000 </r>
       <r>  -39.9343    1.0000 </r>
       <r>  -39.9246    1.0000 </r>
       <r>    3.4838    1.0000 </r>
       <r>    8.2093    1.0000 </r>
       <r>    9.1537    1.0000 </r>
       <r>    9.1781    1.0000 </r>
       <r>   10.6677    1.0000 </r>
       <r>   11.1671    1.0000 </r>
       <r>   28.3430    0.0000 </r>
       <r>   29.0786    0.0000 </r>
       <r>   33.7392    0.0000 </r>
       <r>   34.6474    0.0000 </r>
       <r>   37.5119    0.0000 </r>
       <r>   39.5825    0.0000 </r>
       <r>   41.2279    0.0000 </r>
       <r>   44.6022    0.0000 </r>
       <r>   46.6589    0.0000 </r>
       <r>   50.6009    0.0000 </r>
       <r>   52.4433    0.0000 </r>
       <r>   53.2817    0.0000 </r>
       <r>   53.6465    0.0000 </r>
       <r>   56.9787    0.0000 </r>
       <r>   63.0950    0.0000 </r>
      </set>
      <set comment="kpoint 10">
       <r>  -39.9440    1.0000 </r>
       <r>  -39.9130    1.0000 </r>
       <r>  -39.9094    1.0000 </r>
       <r>    2.4887    1.0000 </r>
       <r>    8.5103    1.0000 </r>
       <r>    8.9008    1.0000 </r>
       <r>    8.9086    1.0000 </r>
       <r>   10.7897    1.0000 </r>
       <r>   11.0740    1.0000 </r>
       <r>   27.8487    0.0000 </r>
       <r>   31.0848    0.0000 </r>
       <r>   32.6357    0.0000 </r>
       <r>   32.8877    0.0000 </r>
       <r>   39.8112    0.0000 </r>
       <r>   42.3369    0.0000 </r>
       <r>   42.6802    0.0000 </r>
       <r>   44.8304    0.0000 </r>
       <r>   46.1864    0.0000 </r>
       <r>   50.3028    0.0000 </r>
       <r>   50.8066    0.0000 </r>
       <r>   53.2800    0.0000 </r>
       <r>   53.5241    0.0000 </r>
       <r>   56.0483    0.0000 </r>
       <r>   62.7109    0.0000 </r>
      </set>
      <set comment="kpoint 11">
       <r>  -39.9923    1.0000 </r>
       <r>  -39.9315    1.0000 </r>
       <r>  -39.9280    1.0000 </r>
       <r>    3.0213    1.0000 </r>
       <r>    8.1822    1.0000 </r>
       <r>    9.1752    1.0000 </r>
       <r>    9.1826    1.0000 </r>
       <r>   10.4368    1.0000 </r>
       <r>   11.2322    1.0000 </r>
       <r>   28.6609    0.0000 </r>
       <r>   30.3875    0.0000 </r>
       <r>   32.6164    0.0000 </r>
       <r>   32.9787    0.0000 </r>
       <r>   39.9297    0.0000 </r>
       <r>   40.7622    0.0000 </r>
       <r>   42.6578    0.0000 </r>
       <r>   42.9624    0.0000 </r>
       <r>   45.4158    0.0000 </r>
       <r>   51.1932    0.0000 </r>
       <r>   52.4471    0.0000 </r>
       <r>   52.5889    0.0000 </r>
       <r>   53.2757    0.0000 </r>
       <r>   56.9225    0.0000 </r>
       <r>   63.9443    0.0000 </r>
      </set>
      <set comment="kpoint 12">
       <r>  -40.0912    1.0000 </r>
       <r>  -39.9670    1.0000 </r>
       <r>  -39.9418    1.0000 </r>
       <r>    3.9786    1.0000 </r>
       <r>    7.8050    1.0000 </r>
       <r>    9.2919    1.0000 </r>
       <r>    9.5687    1.0000 </r>
       <r>   10.3191    1.0000 </r>
       <r>   11.5346    1.0000 </r>
       <r>   28.6761    0.0000 </r>
       <r>   29.8020    0.0000 </r>
       <r>   32.3010    0.0000 </r>
       <r>   33.6288    0.0000 </r>
       <r>   37.3813    0.0000 </r>
       <r>   39.7596    0.0000 </r>
       <r>   41.0473    0.0000 </r>
       <r>   44.7219    0.0000 </r>
       <r>   46.1877    0.0000 </r>
       <r>   50.0579    0.0000 </r>
       <r>   51.7653    0.0000 </r>
       <r>   53.2744    0.0000 </r>
       <r>   55.3718    0.0000 </r>
       <r>   58.3365    0.0000 </r>
       <r>   63.8021    0.0000 </r>
      </set>
      <set comment="kpoint 13">
       <r>  -40.2315    1.0000 </r>
       <r>  -39.9987    1.0000 </r>
       <r>  -39.9651    1.0000 </r>
       <r>    5.1318    1.0000 </r>
       <r>    7.8543    1.0000 </r>
       <r>    8.8352    1.0000 </r>
       <r>    9.5777    1.0000 </r>
       <r>   11.2240    1.0000 </r>
       <r>   12.3149    1.0000 </r>
       <r>   25.4486    0.0000 </r>
       <r>   29.4818    0.0000 </r>
       <r>   31.7351    0.0000 </r>
       <r>   33.7754    0.0000 </r>
       <r>   37.9921    0.0000 </r>
       <r>   38.8402    0.0000 </r>
       <r>   40.8133    0.0000 </r>
       <r>   44.0173    0.0000 </r>
       <r>   49.6411    0.0000 </r>
       <r>   51.5063    0.0000 </r>
       <r>   51.7097    0.0000 </r>
       <r>   53.2762    0.0000 </r>
       <r>   55.4826    0.0000 </r>
       <r>   59.8769    0.0000 </r>
       <r>   61.6801    0.0000 </r>
      </set>
      <set comment="kpoint 14">
       <r>  -40.3506    1.0000 </r>
       <r>  -40.0225    1.0000 </r>
       <r>  -39.9890    1.0000 </r>
       <r>    5.5677    1.0000 </r>
       <r>    8.3849    1.0000 </r>
       <r>    8.9862    1.0000 </r>
       <r>    9.3485    1.0000 </r>
       <r>   12.3902    1.0000 </r>
       <r>   13.5862    0.0000 </r>
       <r>   21.5650    0.0000 </r>
       <r>   28.2846    0.0000 </r>
       <r>   30.6512    0.0000 </r>
       <r>   32.9042    0.0000 </r>
       <r>   38.8569    0.0000 </r>
       <r>   41.2476    0.0000 </r>
       <r>   42.2260    0.0000 </r>
       <r>   44.3442    0.0000 </r>
       <r>   51.0324    0.0000 </r>
       <r>   51.2930    0.0000 </r>
       <r>   53.1148    0.0000 </r>
       <r>   53.2821    0.0000 </r>
       <r>   56.8027    0.0000 </r>
       <r>   58.3138    0.0000 </r>
       <r>   60.0363    0.0000 </r>
      </set>
      <set comment="kpoint 15">
       <r>  -40.4058    1.0000 </r>
       <r>  -40.0378    1.0000 </r>
       <r>  -39.9963    1.0000 </r>
       <r>    5.5889    1.0000 </r>
       <r>    8.2065    1.0000 </r>
       <r>    9.1459    1.0000 </r>
       <r>   10.0988    1.0000 </r>
       <r>   12.7136    0.9137 </r>
       <r>   15.2349    0.0000 </r>
       <r>   18.7040    0.0000 </r>
       <r>   27.7444    0.0000 </r>
       <r>   30.3209    0.0000 </r>
       <r>   31.5011    0.0000 </r>
       <r>   40.5716    0.0000 </r>
       <r>   41.3841    0.0000 </r>
       <r>   44.2702    0.0000 </r>
       <r>   46.6168    0.0000 </r>
       <r>   48.9298    0.0000 </r>
       <r>   50.7069    0.0000 </r>
       <r>   53.2799    0.0000 </r>
       <r>   53.6471    0.0000 </r>
       <r>   55.0746    0.0000 </r>
       <r>   59.1534    0.0000 </r>
       <r>   61.0165    0.0000 </r>
      </set>
      <set comment="kpoint 16">
       <r>  -40.3759    1.0000 </r>
       <r>  -40.0397    1.0000 </r>
       <r>  -39.9837    1.0000 </r>
       <r>    5.6147    1.0000 </r>
       <r>    8.3286    1.0000 </r>
       <r>    9.1763    1.0000 </r>
       <r>    9.6218    1.0000 </r>
       <r>   12.1942    1.0000 </r>
       <r>   14.3752    0.0000 </r>
       <r>   20.4612    0.0000 </r>
       <r>   27.9763    0.0000 </r>
       <r>   30.0873    0.0000 </r>
       <r>   32.8894    0.0000 </r>
       <r>   38.8000    0.0000 </r>
       <r>   41.4098    0.0000 </r>
       <r>   43.4017    0.0000 </r>
       <r>   46.1733    0.0000 </r>
       <r>   50.0734    0.0000 </r>
       <r>   51.2304    0.0000 </r>
       <r>   52.1312    0.0000 </r>
       <r>   53.2810    0.0000 </r>
       <r>   56.7489    0.0000 </r>
       <r>   59.0549    0.0000 </r>
       <r>   59.9931    0.0000 </r>
      </set>
      <set comment="kpoint 17">
       <r>  -40.2738    1.0000 </r>
       <r>  -40.0227    1.0000 </r>
       <r>  -39.9588    1.0000 </r>
       <r>    5.4131    1.0000 </r>
       <r>    8.2207    1.0000 </r>
       <r>    8.7183    1.0000 </r>
       <r>    9.4485    1.0000 </r>
       <r>   11.1412    1.0000 </r>
       <r>   13.0056    0.0000 </r>
       <r>   24.1886    0.0000 </r>
       <r>   28.8919    0.0000 </r>
       <r>   31.0151    0.0000 </r>
       <r>   34.7325    0.0000 </r>
       <r>   36.7730    0.0000 </r>
       <r>   40.2094    0.0000 </r>
       <r>   41.8393    0.0000 </r>
       <r>   44.1778    0.0000 </r>
       <r>   49.7666    0.0000 </r>
       <r>   50.1516    0.0000 </r>
       <r>   53.2785    0.0000 </r>
       <r>   53.8591    0.0000 </r>
       <r>   56.1183    0.0000 </r>
       <r>   59.3527    0.0000 </r>
       <r>   60.5339    0.0000 </r>
      </set>
      <set comment="kpoint 18">
       <r>  -40.1393    1.0000 </r>
       <r>  -39.9878    1.0000 </r>
       <r>  -39.9340    1.0000 </r>
       <r>    4.3912    1.0000 </r>
       <r>    7.8516    1.0000 </r>
       <r>    9.1264    1.0000 </r>
       <r>    9.6026    1.0000 </r>
       <r>   10.3227    1.0000 </r>
       <r>   11.8781    1.0000 </r>
       <r>   27.4983    0.0000 </r>
       <r>   29.7288    0.0000 </r>
       <r>   32.4468    0.0000 </r>
       <r>   33.5976    0.0000 </r>
       <r>   37.2621    0.0000 </r>
       <r>   40.3010    0.0000 </r>
       <r>   41.2221    0.0000 </r>
       <r>   43.6622    0.0000 </r>
       <r>   47.1956    0.0000 </r>
       <r>   49.8323    0.0000 </r>
       <r>   51.4731    0.0000 </r>
       <r>   53.2755    0.0000 </r>
       <r>   57.2661    0.0000 </r>
       <r>   58.5542    0.0000 </r>
       <r>   62.6563    0.0000 </r>
      </set>
      <set comment="kpoint 19">
       <r>  -40.0296    1.0000 </r>
       <r>  -39.9408    1.0000 </r>
       <r>  -39.9192    1.0000 </r>
       <r>    3.2654    1.0000 </r>
       <r>    8.1762    1.0000 </r>
       <r>    9.1740    1.0000 </r>
       <r>    9.1955    1.0000 </r>
       <r>   10.4959    1.0000 </r>
       <r>   11.2305    1.0000 </r>
       <r>   28.9241    0.0000 </r>
       <r>   29.3118    0.0000 </r>
       <r>   32.7047    0.0000 </r>
       <r>   34.3002    0.0000 </r>
       <r>   37.9404    0.0000 </r>
       <r>   40.7392    0.0000 </r>
       <r>   42.9138    0.0000 </r>
       <r>   43.7277    0.0000 </r>
       <r>   45.0064    0.0000 </r>
       <r>   50.6249    0.0000 </r>
       <r>   51.9580    0.0000 </r>
       <r>   53.2782    0.0000 </r>
       <r>   54.0771    0.0000 </r>
       <r>   57.2335    0.0000 </r>
       <r>   63.4985    0.0000 </r>
      </set>
      <set comment="kpoint 20">
       <r>  -40.1304    1.0000 </r>
       <r>  -39.9868    1.0000 </r>
       <r>  -39.9859    1.0000 </r>
       <r>    4.6044    1.0000 </r>
       <r>    7.2995    1.0000 </r>
       <r>    9.4536    1.0000 </r>
       <r>   10.1034    1.0000 </r>
       <r>   10.3484    1.0000 </r>
       <r>   11.7291    1.0000 </r>
       <r>   29.4763    0.0000 </r>
       <r>   30.9040    0.0000 </r>
       <r>   31.0348    0.0000 </r>
       <r>   31.7511    0.0000 </r>
       <r>   36.0951    0.0000 </r>
       <r>   39.5757    0.0000 </r>
       <r>   39.8326    0.0000 </r>
       <r>   46.3260    0.0000 </r>
       <r>   47.3432    0.0000 </r>
       <r>   48.5166    0.0000 </r>
       <r>   53.2691    0.0000 </r>
       <r>   54.4052    0.0000 </r>
       <r>   55.2112    0.0000 </r>
       <r>   56.9706    0.0000 </r>
       <r>   66.5615    0.0000 </r>
      </set>
      <set comment="kpoint 21">
       <r>  -40.2241    1.0000 </r>
       <r>  -40.0312    1.0000 </r>
       <r>  -40.0069    1.0000 </r>
       <r>    5.5117    1.0000 </r>
       <r>    6.9762    1.0000 </r>
       <r>    9.0401    1.0000 </r>
       <r>   10.5928    1.0000 </r>
       <r>   11.2415    1.0000 </r>
       <r>   12.3619    1.0000 </r>
       <r>   27.1348    0.0000 </r>
       <r>   29.1926    0.0000 </r>
       <r>   30.2964    0.0000 </r>
       <r>   32.8378    0.0000 </r>
       <r>   35.3809    0.0000 </r>
       <r>   39.8119    0.0000 </r>
       <r>   41.1044    0.0000 </r>
       <r>   46.0780    0.0000 </r>
       <r>   46.5745    0.0000 </r>
       <r>   51.1598    0.0000 </r>
       <r>   53.2695    0.0000 </r>
       <r>   54.3024    0.0000 </r>
       <r>   56.2574    0.0000 </r>
       <r>   57.7801    0.0000 </r>
       <r>   64.5123    0.0000 </r>
      </set>
      <set comment="kpoint 22">
       <r>  -40.3128    1.0000 </r>
       <r>  -40.0740    1.0000 </r>
       <r>  -40.0277    1.0000 </r>
       <r>    6.0700    1.0000 </r>
       <r>    7.2760    1.0000 </r>
       <r>    8.6694    1.0000 </r>
       <r>   10.3978    1.0000 </r>
       <r>   12.5373    1.0000 </r>
       <r>   13.9085    0.0000 </r>
       <r>   22.9724    0.0000 </r>
       <r>   28.4630    0.0000 </r>
       <r>   28.6783    0.0000 </r>
       <r>   32.6897    0.0000 </r>
       <r>   37.8373    0.0000 </r>
       <r>   40.4356    0.0000 </r>
       <r>   42.5017    0.0000 </r>
       <r>   45.4282    0.0000 </r>
       <r>   48.0096    0.0000 </r>
       <r>   51.1948    0.0000 </r>
       <r>   53.2830    0.0000 </r>
       <r>   54.4164    0.0000 </r>
       <r>   57.7824    0.0000 </r>
       <r>   58.3885    0.0000 </r>
       <r>   61.9182    0.0000 </r>
      </set>
      <set comment="kpoint 23">
       <r>  -40.3571    1.0000 </r>
       <r>  -40.1189    1.0000 </r>
       <r>  -40.0308    1.0000 </r>
       <r>    6.2402    1.0000 </r>
       <r>    7.6253    1.0000 </r>
       <r>    8.9058    1.0000 </r>
       <r>   10.1069    1.0000 </r>
       <r>   12.7603    0.5176 </r>
       <r>   16.5855    0.0000 </r>
       <r>   19.2490    0.0000 </r>
       <r>   27.2545    0.0000 </r>
       <r>   28.8163    0.0000 </r>
       <r>   31.6364    0.0000 </r>
       <r>   39.7355    0.0000 </r>
       <r>   41.7357    0.0000 </r>
       <r>   42.8469    0.0000 </r>
       <r>   46.0962    0.0000 </r>
       <r>   49.7641    0.0000 </r>
       <r>   50.8473    0.0000 </r>
       <r>   53.2755    0.0000 </r>
       <r>   53.4206    0.0000 </r>
       <r>   56.2530    0.0000 </r>
       <r>   58.9916    0.0000 </r>
       <r>   61.5791    0.0000 </r>
      </set>
      <set comment="kpoint 24">
       <r>  -40.3437    1.0000 </r>
       <r>  -40.1442    1.0000 </r>
       <r>  -40.0130    1.0000 </r>
       <r>    6.4776    1.0000 </r>
       <r>    7.7307    1.0000 </r>
       <r>    8.8972    1.0000 </r>
       <r>    9.9585    1.0000 </r>
       <r>   12.1320    1.0000 </r>
       <r>   16.3796    0.0000 </r>
       <r>   20.0769    0.0000 </r>
       <r>   26.2030    0.0000 </r>
       <r>   29.7329    0.0000 </r>
       <r>   31.9483    0.0000 </r>
       <r>   38.6368    0.0000 </r>
       <r>   40.9309    0.0000 </r>
       <r>   44.3930    0.0000 </r>
       <r>   48.0455    0.0000 </r>
       <r>   49.3700    0.0000 </r>
       <r>   51.4874    0.0000 </r>
       <r>   52.4264    0.0000 </r>
       <r>   53.2807    0.0000 </r>
       <r>   54.3587    0.0000 </r>
       <r>   58.5883    0.0000 </r>
       <r>   60.7994    0.0000 </r>
      </set>
      <set comment="kpoint 25">
       <r>  -40.2933    1.0000 </r>
       <r>  -40.1232    1.0000 </r>
       <r>  -39.9837    1.0000 </r>
       <r>    6.5698    1.0000 </r>
       <r>    7.8763    1.0000 </r>
       <r>    8.1584    1.0000 </r>
       <r>   10.0649    1.0000 </r>
       <r>   11.0942    1.0000 </r>
       <r>   14.6943    0.0000 </r>
       <r>   23.3785    0.0000 </r>
       <r>   26.3997    0.0000 </r>
       <r>   30.1838    0.0000 </r>
       <r>   34.4711    0.0000 </r>
       <r>   35.7144    0.0000 </r>
       <r>   41.0758    0.0000 </r>
       <r>   44.7821    0.0000 </r>
       <r>   45.6484    0.0000 </r>
       <r>   47.6255    0.0000 </r>
       <r>   50.4734    0.0000 </r>
       <r>   53.2821    0.0000 </r>
       <r>   54.4027    0.0000 </r>
       <r>   57.6458    0.0000 </r>
       <r>   58.4502    0.0000 </r>
       <r>   59.4457    0.0000 </r>
      </set>
      <set comment="kpoint 26">
       <r>  -40.2368    1.0000 </r>
       <r>  -40.0502    1.0000 </r>
       <r>  -39.9557    1.0000 </r>
       <r>    5.6129    1.0000 </r>
       <r>    7.7178    1.0000 </r>
       <r>    8.6879    1.0000 </r>
       <r>    9.9102    1.0000 </r>
       <r>   10.5092    1.0000 </r>
       <r>   13.1423    0.0000 </r>
       <r>   25.4574    0.0000 </r>
       <r>   28.6073    0.0000 </r>
       <r>   30.9562    0.0000 </r>
       <r>   33.7303    0.0000 </r>
       <r>   37.1445    0.0000 </r>
       <r>   40.9083    0.0000 </r>
       <r>   42.2284    0.0000 </r>
       <r>   43.4632    0.0000 </r>
       <r>   47.8968    0.0000 </r>
       <r>   49.8097    0.0000 </r>
       <r>   53.2767    0.0000 </r>
       <r>   53.8400    0.0000 </r>
       <r>   57.7910    0.0000 </r>
       <r>   59.8364    0.0000 </r>
       <r>   60.5524    0.0000 </r>
      </set>
      <set comment="kpoint 27">
       <r>  -40.1769    1.0000 </r>
       <r>  -39.9699    1.0000 </r>
       <r>  -39.9400    1.0000 </r>
       <r>    4.4766    1.0000 </r>
       <r>    8.0654    1.0000 </r>
       <r>    9.0959    1.0000 </r>
       <r>    9.3337    1.0000 </r>
       <r>   10.7873    1.0000 </r>
       <r>   11.7767    1.0000 </r>
       <r>   26.4056    0.0000 </r>
       <r>   29.4762    0.0000 </r>
       <r>   33.3266    0.0000 </r>
       <r>   34.5672    0.0000 </r>
       <r>   37.4737    0.0000 </r>
       <r>   38.4705    0.0000 </r>
       <r>   40.0119    0.0000 </r>
       <r>   45.2807    0.0000 </r>
       <r>   48.2394    0.0000 </r>
       <r>   50.9565    0.0000 </r>
       <r>   51.6056    0.0000 </r>
       <r>   53.2749    0.0000 </r>
       <r>   55.3186    0.0000 </r>
       <r>   58.5417    0.0000 </r>
       <r>   63.0019    0.0000 </r>
      </set>
      <set comment="kpoint 28">
       <r>  -40.2777    1.0000 </r>
       <r>  -40.0510    1.0000 </r>
       <r>  -40.0477    1.0000 </r>
       <r>    5.6359    1.0000 </r>
       <r>    6.4554    1.0000 </r>
       <r>   10.0419    1.0000 </r>
       <r>   11.3731    1.0000 </r>
       <r>   11.8206    1.0000 </r>
       <r>   12.3395    1.0000 </r>
       <r>   27.0488    0.0000 </r>
       <r>   27.7863    0.0000 </r>
       <r>   28.7642    0.0000 </r>
       <r>   32.5309    0.0000 </r>
       <r>   34.0362    0.0000 </r>
       <r>   41.7316    0.0000 </r>
       <r>   42.1755    0.0000 </r>
       <r>   44.3795    0.0000 </r>
       <r>   48.0384    0.0000 </r>
       <r>   51.0531    0.0000 </r>
       <r>   53.2691    0.0000 </r>
       <r>   56.8022    0.0000 </r>
       <r>   56.8712    0.0000 </r>
       <r>   57.4033    0.0000 </r>
       <r>   62.5527    0.0000 </r>
      </set>
      <set comment="kpoint 29">
       <r>  -40.3336    1.0000 </r>
       <r>  -40.0913    1.0000 </r>
       <r>  -40.0679    1.0000 </r>
       <r>    5.7958    1.0000 </r>
       <r>    6.3055    1.0000 </r>
       <r>   10.1832    1.0000 </r>
       <r>   11.7962    1.0000 </r>
       <r>   12.5559    1.0000 </r>
       <r>   13.8488    0.0000 </r>
       <r>   24.1485    0.0000 </r>
       <r>   26.1681    0.0000 </r>
       <r>   27.0775    0.0000 </r>
       <r>   33.5517    0.0000 </r>
       <r>   35.4217    0.0000 </r>
       <r>   41.4003    0.0000 </r>
       <r>   44.1439    0.0000 </r>
       <r>   45.5739    0.0000 </r>
       <r>   48.7466    0.0000 </r>
       <r>   49.8939    0.0000 </r>
       <r>   53.2777    0.0000 </r>
       <r>   55.2661    0.0000 </r>
       <r>   57.6978    0.0000 </r>
       <r>   59.2275    0.0000 </r>
       <r>   60.1845    0.0000 </r>
      </set>
      <set comment="kpoint 30">
       <r>  -40.3450    1.0000 </r>
       <r>  -40.1558    1.0000 </r>
       <r>  -40.0698    1.0000 </r>
       <r>    6.0272    1.0000 </r>
       <r>    6.7051    1.0000 </r>
       <r>    9.7371    1.0000 </r>
       <r>   11.3581    1.0000 </r>
       <r>   12.9080    0.0000 </r>
       <r>   16.8291    0.0000 </r>
       <r>   20.5401    0.0000 </r>
       <r>   25.0806    0.0000 </r>
       <r>   26.7587    0.0000 </r>
       <r>   33.5348    0.0000 </r>
       <r>   38.1516    0.0000 </r>
       <r>   40.6061    0.0000 </r>
       <r>   43.7430    0.0000 </r>
       <r>   47.8984    0.0000 </r>
       <r>   49.4346    0.0000 </r>
       <r>   50.1481    0.0000 </r>
       <r>   53.2791    0.0000 </r>
       <r>   54.2688    0.0000 </r>
       <r>   56.2010    0.0000 </r>
       <r>   58.5940    0.0000 </r>
       <r>   59.7893    0.0000 </r>
      </set>
      <set comment="kpoint 31">
       <r>  -40.2967    1.0000 </r>
       <r>  -40.2322    1.0000 </r>
       <r>  -40.0497    1.0000 </r>
       <r>    6.4382    1.0000 </r>
       <r>    7.3598    1.0000 </r>
       <r>    9.0213    1.0000 </r>
       <r>   10.8688    1.0000 </r>
       <r>   12.3942    1.0000 </r>
       <r>   17.8800    0.0000 </r>
       <r>   20.4335    0.0000 </r>
       <r>   23.3445    0.0000 </r>
       <r>   28.4346    0.0000 </r>
       <r>   32.7601    0.0000 </r>
       <r>   39.4412    0.0000 </r>
       <r>   41.3651    0.0000 </r>
       <r>   41.6194    0.0000 </r>
       <r>   49.0674    0.0000 </r>
       <r>   49.7368    0.0000 </r>
       <r>   52.7292    0.0000 </r>
       <r>   53.2840    0.0000 </r>
       <r>   53.8001    0.0000 </r>
       <r>   54.5430    0.0000 </r>
       <r>   57.4808    0.0000 </r>
       <r>   59.9260    0.0000 </r>
      </set>
      <set comment="kpoint 32">
       <r>  -40.2999    1.0000 </r>
       <r>  -40.1976    1.0000 </r>
       <r>  -40.0164    1.0000 </r>
       <r>    6.8465    1.0000 </r>
       <r>    7.7397    1.0000 </r>
       <r>    8.3374    1.0000 </r>
       <r>   10.3449    1.0000 </r>
       <r>   11.7653    1.0000 </r>
       <r>   16.2512    0.0000 </r>
       <r>   21.9779    0.0000 </r>
       <r>   24.2269    0.0000 </r>
       <r>   30.0696    0.0000 </r>
       <r>   32.4629    0.0000 </r>
       <r>   37.7020    0.0000 </r>
       <r>   40.7731    0.0000 </r>
       <r>   44.2060    0.0000 </r>
       <r>   47.8953    0.0000 </r>
       <r>   50.8316    0.0000 </r>
       <r>   51.7073    0.0000 </r>
       <r>   51.9559    0.0000 </r>
       <r>   53.2838    0.0000 </r>
       <r>   55.0386    0.0000 </r>
       <r>   56.7759    0.0000 </r>
       <r>   60.8959    0.0000 </r>
      </set>
      <set comment="kpoint 33">
       <r>  -40.3315    1.0000 </r>
       <r>  -40.0847    1.0000 </r>
       <r>  -39.9837    1.0000 </r>
       <r>    6.0768    1.0000 </r>
       <r>    8.1699    1.0000 </r>
       <r>    8.6752    1.0000 </r>
       <r>    9.6297    1.0000 </r>
       <r>   11.6279    1.0000 </r>
       <r>   14.6038    0.0000 </r>
       <r>   21.9066    0.0000 </r>
       <r>   27.7284    0.0000 </r>
       <r>   29.6720    0.0000 </r>
       <r>   33.7206    0.0000 </r>
       <r>   37.0705    0.0000 </r>
       <r>   41.2311    0.0000 </r>
       <r>   44.3265    0.0000 </r>
       <r>   45.3329    0.0000 </r>
       <r>   49.3594    0.0000 </r>
       <r>   50.7063    0.0000 </r>
       <r>   52.9411    0.0000 </r>
       <r>   53.2813    0.0000 </r>
       <r>   57.1266    0.0000 </r>
       <r>   58.5963    0.0000 </r>
       <r>   60.4172    0.0000 </r>
      </set>
      <set comment="kpoint 34">
       <r>  -40.3222    1.0000 </r>
       <r>  -39.9933    1.0000 </r>
       <r>  -39.9651    1.0000 </r>
       <r>    5.2058    1.0000 </r>
       <r>    8.7203    1.0000 </r>
       <r>    9.0204    1.0000 </r>
       <r>    9.1388    1.0000 </r>
       <r>   11.7982    1.0000 </r>
       <r>   12.7494    0.6370 </r>
       <r>   22.7743    0.0000 </r>
       <r>   28.2510    0.0000 </r>
       <r>   32.0099    0.0000 </r>
       <r>   34.3720    0.0000 </r>
       <r>   37.8057    0.0000 </r>
       <r>   39.9685    0.0000 </r>
       <r>   40.7885    0.0000 </r>
       <r>   45.7824    0.0000 </r>
       <r>   50.3759    0.0000 </r>
       <r>   51.9173    0.0000 </r>
       <r>   53.2768    0.0000 </r>
       <r>   53.4912    0.0000 </r>
       <r>   55.2433    0.0000 </r>
       <r>   58.7874    0.0000 </r>
       <r>   60.2856    0.0000 </r>
      </set>
      <set comment="kpoint 35">
       <r>  -40.3780    1.0000 </r>
       <r>  -40.0970    1.0000 </r>
       <r>  -40.0905    1.0000 </r>
       <r>    5.4383    1.0000 </r>
       <r>    5.9143    1.0000 </r>
       <r>   12.0907    1.0000 </r>
       <r>   12.4551    1.0000 </r>
       <r>   12.9567    0.0000 </r>
       <r>   13.9010    0.0000 </r>
       <r>   23.4378    0.0000 </r>
       <r>   25.0611    0.0000 </r>
       <r>   25.1281    0.0000 </r>
       <r>   33.1171    0.0000 </r>
       <r>   36.0689    0.0000 </r>
       <r>   41.7457    0.0000 </r>
       <r>   46.0695    0.0000 </r>
       <r>   46.5637    0.0000 </r>
       <r>   48.6013    0.0000 </r>
       <r>   50.4866    0.0000 </r>
       <r>   53.2809    0.0000 </r>
       <r>   55.9575    0.0000 </r>
       <r>   56.0358    0.0000 </r>
       <r>   57.2812    0.0000 </r>
       <r>   57.9349    0.0000 </r>
      </set>
      <set comment="kpoint 36">
       <r>  -40.3866    1.0000 </r>
       <r>  -40.1241    1.0000 </r>
       <r>  -40.0977    1.0000 </r>
       <r>    5.5285    1.0000 </r>
       <r>    5.9841    1.0000 </r>
       <r>   11.5521    1.0000 </r>
       <r>   12.3635    1.0000 </r>
       <r>   13.1804    0.0000 </r>
       <r>   16.1302    0.0000 </r>
       <r>   21.3872    0.0000 </r>
       <r>   24.0731    0.0000 </r>
       <r>   24.8933    0.0000 </r>
       <r>   34.1964    0.0000 </r>
       <r>   36.5159    0.0000 </r>
       <r>   41.0559    0.0000 </r>
       <r>   46.0651    0.0000 </r>
       <r>   48.7664    0.0000 </r>
       <r>   49.1169    0.0000 </r>
       <r>   50.8575    0.0000 </r>
       <r>   53.2800    0.0000 </r>
       <r>   54.2539    0.0000 </r>
       <r>   55.4552    0.0000 </r>
       <r>   55.6533    0.0000 </r>
       <r>   57.2313    0.0000 </r>
      </set>
      <set comment="kpoint 37">
       <r>  -40.3471    1.0000 </r>
       <r>  -40.1787    1.0000 </r>
       <r>  -40.0786    1.0000 </r>
       <r>    5.9467    1.0000 </r>
       <r>    6.5884    1.0000 </r>
       <r>   10.1446    1.0000 </r>
       <r>   11.6234    1.0000 </r>
       <r>   12.8940    0.0001 </r>
       <r>   18.2169    0.0000 </r>
       <r>   19.7648    0.0000 </r>
       <r>   23.6430    0.0000 </r>
       <r>   26.3536    0.0000 </r>
       <r>   34.0058    0.0000 </r>
       <r>   38.3190    0.0000 </r>
       <r>   40.3852    0.0000 </r>
       <r>   43.6231    0.0000 </r>
       <r>   49.3463    0.0000 </r>
       <r>   49.3740    0.0000 </r>
       <r>   51.5344    0.0000 </r>
       <r>   53.0228    0.0000 </r>
       <r>   53.2847    0.0000 </r>
       <r>   56.3958    0.0000 </r>
       <r>   56.8102    0.0000 </r>
       <r>   59.3558    0.0000 </r>
      </set>
      <set comment="kpoint 38">
       <r>  -40.3330    1.0000 </r>
       <r>  -40.1776    1.0000 </r>
       <r>  -40.0431    1.0000 </r>
       <r>    6.4035    1.0000 </r>
       <r>    7.4221    1.0000 </r>
       <r>    8.9566    1.0000 </r>
       <r>   10.5463    1.0000 </r>
       <r>   12.5927    1.0000 </r>
       <r>   18.3518    0.0000 </r>
       <r>   18.5280    0.0000 </r>
       <r>   25.3379    0.0000 </r>
       <r>   28.5517    0.0000 </r>
       <r>   32.2060    0.0000 </r>
       <r>   39.6122    0.0000 </r>
       <r>   41.4639    0.0000 </r>
       <r>   42.2656    0.0000 </r>
       <r>   47.9404    0.0000 </r>
       <r>   49.3710    0.0000 </r>
       <r>   51.6653    0.0000 </r>
       <r>   53.2838    0.0000 </r>
       <r>   53.9068    0.0000 </r>
       <r>   55.3348    0.0000 </r>
       <r>   58.4308    0.0000 </r>
       <r>   60.8046    0.0000 </r>
      </set>
      <set comment="kpoint 39">
       <r>  -40.3824    1.0000 </r>
       <r>  -40.0870    1.0000 </r>
       <r>  -40.0064    1.0000 </r>
       <r>    6.0044    1.0000 </r>
       <r>    7.9264    1.0000 </r>
       <r>    9.5083    1.0000 </r>
       <r>    9.5225    1.0000 </r>
       <r>   12.5080    1.0000 </r>
       <r>   16.2620    0.0000 </r>
       <r>   18.7392    0.0000 </r>
       <r>   27.6988    0.0000 </r>
       <r>   29.4885    0.0000 </r>
       <r>   31.5023    0.0000 </r>
       <r>   39.8355    0.0000 </r>
       <r>   41.1285    0.0000 </r>
       <r>   44.6650    0.0000 </r>
       <r>   47.4844    0.0000 </r>
       <r>   48.4166    0.0000 </r>
       <r>   51.2222    0.0000 </r>
       <r>   53.2767    0.0000 </r>
       <r>   53.3274    0.0000 </r>
       <r>   53.9711    0.0000 </r>
       <r>   59.4255    0.0000 </r>
       <r>   60.9410    0.0000 </r>
      </set>
      <set comment="kpoint 40">
       <r>  -40.4104    1.0000 </r>
       <r>  -40.0041    1.0000 </r>
       <r>  -39.9830    1.0000 </r>
       <r>    5.2870    1.0000 </r>
       <r>    8.4830    1.0000 </r>
       <r>    8.8949    1.0000 </r>
       <r>   10.5741    1.0000 </r>
       <r>   12.6338    0.9999 </r>
       <r>   13.9517    0.0000 </r>
       <r>   19.4039    0.0000 </r>
       <r>   27.3896    0.0000 </r>
       <r>   31.1516    0.0000 </r>
       <r>   32.1831    0.0000 </r>
       <r>   40.4201    0.0000 </r>
       <r>   41.5387    0.0000 </r>
       <r>   42.9765    0.0000 </r>
       <r>   47.0951    0.0000 </r>
       <r>   49.6172    0.0000 </r>
       <r>   50.0006    0.0000 </r>
       <r>   53.2873    0.0000 </r>
       <r>   54.2677    0.0000 </r>
       <r>   56.7003    0.0000 </r>
       <r>   59.1060    0.0000 </r>
       <r>   59.8520    0.0000 </r>
      </set>
      <set comment="kpoint 41">
       <r>  -40.4009    1.0000 </r>
       <r>  -40.1078    1.0000 </r>
       <r>  -40.1004    1.0000 </r>
       <r>    5.3320    1.0000 </r>
       <r>    5.8004    1.0000 </r>
       <r>   12.6490    0.9993 </r>
       <r>   12.6535    0.9989 </r>
       <r>   13.2016    0.0000 </r>
       <r>   14.8973    0.0000 </r>
       <r>   21.9970    0.0000 </r>
       <r>   24.2715    0.0000 </r>
       <r>   24.4886    0.0000 </r>
       <r>   33.4311    0.0000 </r>
       <r>   36.5281    0.0000 </r>
       <r>   41.3923    0.0000 </r>
       <r>   47.1538    0.0000 </r>
       <r>   48.6693    0.0000 </r>
       <r>   48.7879    0.0000 </r>
       <r>   51.2642    0.0000 </r>
       <r>   53.2696    0.0000 </r>
       <r>   53.3104    0.0000 </r>
       <r>   53.8594    0.0000 </r>
       <r>   57.0562    0.0000 </r>
       <r>   58.1018    0.0000 </r>
      </set>
      <set comment="kpoint 42">
       <r>  -40.3685    1.0000 </r>
       <r>  -40.1125    1.0000 </r>
       <r>  -40.0877    1.0000 </r>
       <r>    5.6377    1.0000 </r>
       <r>    6.0931    1.0000 </r>
       <r>   11.0017    1.0000 </r>
       <r>   12.2239    1.0000 </r>
       <r>   12.9356    0.0000 </r>
       <r>   15.0627    0.0000 </r>
       <r>   22.5954    0.0000 </r>
       <r>   24.8933    0.0000 </r>
       <r>   25.6203    0.0000 </r>
       <r>   33.8979    0.0000 </r>
       <r>   36.1288    0.0000 </r>
       <r>   41.2720    0.0000 </r>
       <r>   45.5936    0.0000 </r>
       <r>   46.8524    0.0000 </r>
       <r>   48.9987    0.0000 </r>
       <r>   50.3213    0.0000 </r>
       <r>   53.2803    0.0000 </r>
       <r>   55.1362    0.0000 </r>
       <r>   55.9705    0.0000 </r>
       <r>   57.5375    0.0000 </r>
       <r>   58.2133    0.0000 </r>
      </set>
      <set comment="kpoint 43">
       <r>  -40.3353    1.0000 </r>
       <r>  -40.1179    1.0000 </r>
       <r>  -40.0527    1.0000 </r>
       <r>    6.1165    1.0000 </r>
       <r>    6.9438    1.0000 </r>
       <r>    9.1507    1.0000 </r>
       <r>   10.9034    1.0000 </r>
       <r>   12.8320    0.0236 </r>
       <r>   15.2678    0.0000 </r>
       <r>   21.6570    0.0000 </r>
       <r>   26.8979    0.0000 </r>
       <r>   27.5672    0.0000 </r>
       <r>   32.9403    0.0000 </r>
       <r>   37.9564    0.0000 </r>
       <r>   40.7122    0.0000 </r>
       <r>   43.3729    0.0000 </r>
       <r>   46.7138    0.0000 </r>
       <r>   48.5208    0.0000 </r>
       <r>   50.1085    0.0000 </r>
       <r>   53.2757    0.0000 </r>
       <r>   54.4086    0.0000 </r>
       <r>   57.2532    0.0000 </r>
       <r>   59.4446    0.0000 </r>
       <r>   61.5810    0.0000 </r>
      </set>
      <set comment="kpoint 44">
       <r>  -40.3630    1.0000 </r>
       <r>  -40.0646    1.0000 </r>
       <r>  -40.0124    1.0000 </r>
       <r>    5.9359    1.0000 </r>
       <r>    7.9776    1.0000 </r>
       <r>    8.9208    1.0000 </r>
       <r>    9.6843    1.0000 </r>
       <r>   12.7311    0.8074 </r>
       <r>   14.8946    0.0000 </r>
       <r>   20.3564    0.0000 </r>
       <r>   28.2871    0.0000 </r>
       <r>   29.4831    0.0000 </r>
       <r>   31.7953    0.0000 </r>
       <r>   39.5402    0.0000 </r>
       <r>   42.0231    0.0000 </r>
       <r>   42.7664    0.0000 </r>
       <r>   44.5235    0.0000 </r>
       <r>   50.5964    0.0000 </r>
       <r>   50.7943    0.0000 </r>
       <r>   52.8954    0.0000 </r>
       <r>   53.2841    0.0000 </r>
       <r>   57.1208    0.0000 </r>
       <r>   58.6129    0.0000 </r>
       <r>   61.4242    0.0000 </r>
      </set>
      <set comment="kpoint 45">
       <r>  -40.3354    1.0000 </r>
       <r>  -40.0777    1.0000 </r>
       <r>  -40.0721    1.0000 </r>
       <r>    5.5916    1.0000 </r>
       <r>    6.1366    1.0000 </r>
       <r>   11.0877    1.0000 </r>
       <r>   12.0013    1.0000 </r>
       <r>   12.6445    0.9995 </r>
       <r>   12.7759    0.3457 </r>
       <r>   25.3037    0.0000 </r>
       <r>   26.2838    0.0000 </r>
       <r>   26.6544    0.0000 </r>
       <r>   32.6854    0.0000 </r>
       <r>   35.2005    0.0000 </r>
       <r>   42.2597    0.0000 </r>
       <r>   44.0489    0.0000 </r>
       <r>   44.6289    0.0000 </r>
       <r>   49.2098    0.0000 </r>
       <r>   49.7690    0.0000 </r>
       <r>   53.2840    0.0000 </r>
       <r>   57.0588    0.0000 </r>
       <r>   57.3953    0.0000 </r>
       <r>   59.1046    0.0000 </r>
       <r>   59.3632    0.0000 </r>
      </set>
      <set comment="kpoint 46">
       <r>  -40.2838    1.0000 </r>
       <r>  -40.0633    1.0000 </r>
       <r>  -40.0400    1.0000 </r>
       <r>    5.8407    1.0000 </r>
       <r>    6.6069    1.0000 </r>
       <r>    9.4053    1.0000 </r>
       <r>   11.2019    1.0000 </r>
       <r>   11.9782    1.0000 </r>
       <r>   12.9395    0.0000 </r>
       <r>   25.7358    0.0000 </r>
       <r>   27.6505    0.0000 </r>
       <r>   28.8176    0.0000 </r>
       <r>   33.4210    0.0000 </r>
       <r>   34.7161    0.0000 </r>
       <r>   40.8621    0.0000 </r>
       <r>   42.4882    0.0000 </r>
       <r>   45.5281    0.0000 </r>
       <r>   47.2948    0.0000 </r>
       <r>   50.9811    0.0000 </r>
       <r>   53.2774    0.0000 </r>
       <r>   55.5259    0.0000 </r>
       <r>   57.4747    0.0000 </r>
       <r>   58.0173    0.0000 </r>
       <r>   62.2439    0.0000 </r>
      </set>
      <set comment="kpoint 47">
       <r>  -40.2775    1.0000 </r>
       <r>  -40.0332    1.0000 </r>
       <r>  -39.9968    1.0000 </r>
       <r>    5.7275    1.0000 </r>
       <r>    7.5995    1.0000 </r>
       <r>    8.5757    1.0000 </r>
       <r>    9.9390    1.0000 </r>
       <r>   11.9326    1.0000 </r>
       <r>   12.9537    0.0000 </r>
       <r>   24.2944    0.0000 </r>
       <r>   29.2712    0.0000 </r>
       <r>   30.0781    0.0000 </r>
       <r>   33.0822    0.0000 </r>
       <r>   37.8612    0.0000 </r>
       <r>   39.8019    0.0000 </r>
       <r>   41.6092    0.0000 </r>
       <r>   44.1781    0.0000 </r>
       <r>   48.6661    0.0000 </r>
       <r>   51.7048    0.0000 </r>
       <r>   53.2829    0.0000 </r>
       <r>   54.6885    0.0000 </r>
       <r>   55.0946    0.0000 </r>
       <r>   58.8108    0.0000 </r>
       <r>   62.1764    0.0000 </r>
      </set>
      <set comment="kpoint 48">
       <r>  -40.2061    1.0000 </r>
       <r>  -40.0191    1.0000 </r>
       <r>  -40.0179    1.0000 </r>
       <r>    5.3207    1.0000 </r>
       <r>    6.8523    1.0000 </r>
       <r>    9.4598    1.0000 </r>
       <r>   10.7138    1.0000 </r>
       <r>   11.0087    1.0000 </r>
       <r>   12.0308    1.0000 </r>
       <r>   28.5835    0.0000 </r>
       <r>   29.4525    0.0000 </r>
       <r>   30.3327    0.0000 </r>
       <r>   32.5830    0.0000 </r>
       <r>   33.7222    0.0000 </r>
       <r>   40.4323    0.0000 </r>
       <r>   40.6801    0.0000 </r>
       <r>   45.6412    0.0000 </r>
       <r>   47.0751    0.0000 </r>
       <r>   51.0428    0.0000 </r>
       <r>   53.2733    0.0000 </r>
       <r>   55.0289    0.0000 </r>
       <r>   56.1423    0.0000 </r>
       <r>   56.7417    0.0000 </r>
       <r>   65.4058    0.0000 </r>
      </set>
      <set comment="kpoint 49">
       <r>  -40.1579    1.0000 </r>
       <r>  -39.9982    1.0000 </r>
       <r>  -39.9727    1.0000 </r>
       <r>    4.7964    1.0000 </r>
       <r>    7.3878    1.0000 </r>
       <r>    9.1385    1.0000 </r>
       <r>   10.0404    1.0000 </r>
       <r>   10.6072    1.0000 </r>
       <r>   11.9155    1.0000 </r>
       <r>   28.0714    0.0000 </r>
       <r>   30.2329    0.0000 </r>
       <r>   31.5917    0.0000 </r>
       <r>   32.3567    0.0000 </r>
       <r>   37.0703    0.0000 </r>
       <r>   39.0683    0.0000 </r>
       <r>   40.2902    0.0000 </r>
       <r>   45.2379    0.0000 </r>
       <r>   47.9289    0.0000 </r>
       <r>   49.4059    0.0000 </r>
       <r>   52.5904    0.0000 </r>
       <r>   53.2729    0.0000 </r>
       <r>   56.2858    0.0000 </r>
       <r>   58.2331    0.0000 </r>
       <r>   64.4442    0.0000 </r>
      </set>
      <set comment="kpoint 50">
       <r>  -40.0567    1.0000 </r>
       <r>  -39.9573    1.0000 </r>
       <r>  -39.9545    1.0000 </r>
       <r>    3.7624    1.0000 </r>
       <r>    7.7593    1.0000 </r>
       <r>    9.5023    1.0000 </r>
       <r>    9.5852    1.0000 </r>
       <r>   10.0979    1.0000 </r>
       <r>   11.4557    1.0000 </r>
       <r>   29.7389    0.0000 </r>
       <r>   29.9244    0.0000 </r>
       <r>   32.1663    0.0000 </r>
       <r>   32.5830    0.0000 </r>
       <r>   38.4303    0.0000 </r>
       <r>   39.6180    0.0000 </r>
       <r>   40.4315    0.0000 </r>
       <r>   45.4071    0.0000 </r>
       <r>   45.7799    0.0000 </r>
       <r>   49.2777    0.0000 </r>
       <r>   53.2651    0.0000 </r>
       <r>   53.6685    0.0000 </r>
       <r>   54.0136    0.0000 </r>
       <r>   57.2133    0.0000 </r>
       <r>   65.5662    0.0000 </r>
      </set>
      <set comment="kpoint 51">
       <r>  -40.0152    1.0000 </r>
       <r>  -39.9176    1.0000 </r>
       <r>  -39.9176    1.0000 </r>
       <r>    3.0032    1.0000 </r>
       <r>    8.3892    1.0000 </r>
       <r>    9.0300    1.0000 </r>
       <r>    9.0300    1.0000 </r>
       <r>   10.8944    1.0000 </r>
       <r>   10.8944    1.0000 </r>
       <r>   28.5324    0.0000 </r>
       <r>   29.2350    0.0000 </r>
       <r>   33.8062    0.0000 </r>
       <r>   33.8062    0.0000 </r>
       <r>   38.6762    0.0000 </r>
       <r>   41.4829    0.0000 </r>
       <r>   41.4829    0.0000 </r>
       <r>   42.9695    0.0000 </r>
       <r>   48.7896    0.0000 </r>
       <r>   48.7896    0.0000 </r>
       <r>   51.7878    0.0000 </r>
       <r>   53.2733    0.0000 </r>
       <r>   55.0628    0.0000 </r>
       <r>   55.0628    0.0000 </r>
       <r>   62.5307    0.0000 </r>
      </set>
      <set comment="kpoint 52">
       <r>  -40.0815    1.0000 </r>
       <r>  -39.9604    1.0000 </r>
       <r>  -39.9204    1.0000 </r>
       <r>    3.7357    1.0000 </r>
       <r>    8.0800    1.0000 </r>
       <r>    9.1864    1.0000 </r>
       <r>    9.3176    1.0000 </r>
       <r>   10.4105    1.0000 </r>
       <r>   11.4422    1.0000 </r>
       <r>   28.3153    0.0000 </r>
       <r>   29.3677    0.0000 </r>
       <r>   32.6481    0.0000 </r>
       <r>   35.6479    0.0000 </r>
       <r>   35.8505    0.0000 </r>
       <r>   40.8235    0.0000 </r>
       <r>   41.9630    0.0000 </r>
       <r>   44.4780    0.0000 </r>
       <r>   45.1544    0.0000 </r>
       <r>   49.8222    0.0000 </r>
       <r>   52.0453    0.0000 </r>
       <r>   53.2762    0.0000 </r>
[...]
       </set>
       <set comment="band 3">
        <r>  0.0000  0.4974  0.0000  0.4974  0.0000  0.0000  0.0000  0.0000  0.0000 </r>
       </set>
       <set comment="band 4">
        <r>  0.1463  0.0000  0.0065  0.0000  0.1924  0.1406  0.0046  0.1406  0.0000 </r>
       </set>
       <set comment="band 5">
        <r>  0.0001  0.0013  0.0000  0.0013  0.1236  0.0738  0.5334  0.0738  0.0000 </r>
       </set>
       <set comment="band 6">
        <r>  0.0000  0.0007  0.0000  0.0007  0.0000  0.1828  0.0000  0.1828  0.4736 </r>
       </set>
       <set comment="band 7">
        <r>  0.0353  0.0263  0.0267  0.0263  0.3635  0.0076  0.0694  0.0076  0.0000 </r>
       </set>
       <set comment="band 8">
        <r>  0.0000  0.0001  0.0000  0.0001  0.0000  0.2706  0.0000  0.2706  0.4105 </r>
       </set>
       <set comment="band 9">
        <r>  0.0370  0.0152  0.0299  0.0152  0.0881  0.1494  0.2419  0.1494  0.0000 </r>
       </set>
       <set comment="band 10">
        <r>  0.2955  0.0218  0.0139  0.0218  0.1115  0.0941  0.0036  0.0941  0.0000 </r>
       </set>
       <set comment="band 11">
        <r>  0.0018  0.0027  0.0105  0.0027  0.0209  0.0000  0.0231  0.0000  0.0000 </r>
       </set>
       <set comment="band 12">
        <r>  0.0000  0.1164  0.0000  0.1164  0.0000  0.0132  0.0000  0.0132  0.0139 </r>
       </set>
       <set comment="band 13">
        <r>  0.0178  0.0329  0.1357  0.0329  0.0470  0.0061  0.0365  0.0061  0.0000 </r>
       </set>
       <set comment="band 14">
        <r>  0.0000  0.0029  0.0000  0.0029  0.0000  0.0298  0.0000  0.0298  0.1752 </r>
       </set>
       <set comment="band 15">
        <r>  0.0026  0.0175  0.0024  0.0175  0.0306  0.0233  0.1713  0.0233  0.0000 </r>
       </set>
       <set comment="band 16">
        <r>  0.0448  0.0223  0.0011  0.0223  0.0983  0.0096  0.0765  0.0096  0.0000 </r>
       </set>
       <set comment="band 17">
        <r>  0.1048  0.0419  0.1187  0.0419  0.0128  0.0337  0.0000  0.0337  0.0000 </r>
       </set>
       <set comment="band 18">
        <r>  0.0375  0.0021  0.0834  0.0021  0.0158  0.0375  0.0004  0.0375  0.0000 </r>
       </set>
       <set comment="band 19">
        <r>  0.0000  0.1057  0.0000  0.1057  0.0000  0.0464  0.0000  0.0464  0.0986 </r>
       </set>
       <set comment="band 20">
        <r>  6.2904  0.0000  0.0000  0.0000  0.0000  0.0000  0.0000  0.0000  0.0000 </r>
       </set>
       <set comment="band 21">
        <r>  0.0000  0.1236  0.0000  0.1236  0.0000  0.0194  0.0000  0.0194  0.0034 </r>
       </set>
       <set comment="band 22">
        <r>  0.0009  0.0088  0.0861  0.0088  0.0227  0.0031  0.0466  0.0031  0.0000 </r>
       </set>
       <set comment="band 23">
        <r>  0.0070  0.0024  0.0313  0.0024  0.1457  0.0065  0.0001  0.0065  0.0000 </r>
       </set>
       <set comment="band 24">
        <r>  0.1121  0.0025  0.0006  0.0025  0.0790  0.0037  0.0003  0.0037  0.0000 </r>
       </set>
      </set>
      <set comment="kpoint 106">
       <set comment="band 1">
        <r>  0.0000  0.2961  0.4039  0.2821  0.0000  0.0000  0.0000  0.0000  0.0000 </r>
       </set>
       <set comment="band 2">
        <r>  0.0000  0.0041  0.3654  0.6226  0.0000  0.0000  0.0000  0.0000  0.0000 </r>
       </set>
       <set comment="band 3">
        <r>  0.0000  0.6904  0.2192  0.0848  0.0000  0.0000  0.0000  0.0000  0.0000 </r>
       </set>
       <set comment="band 4">
        <r>  0.1111  0.0004  0.0079  0.0036  0.2245  0.1899  0.0066  0.1063  0.0012 </r>
       </set>
       <set comment="band 5">
        <r>  0.0000  0.0064  0.0001  0.0003  0.0624  0.1291  0.4428  0.0013  0.1203 </r>
       </set>
       <set comment="band 6">
        <r>  0.0085  0.0131  0.0119  0.0221  0.1766  0.1762  0.1454  0.0746  0.0541 </r>
       </set>
       <set comment="band 7">
        <r>  0.0039  0.0061  0.0133  0.0016  0.1700  0.0029  0.0341  0.1706  0.3795 </r>
       </set>
       <set comment="band 8">
        <r>  0.0008  0.0002  0.0014  0.0006  0.0854  0.0843  0.0693  0.4482  0.2424 </r>
       </set>
       <set comment="band 9">
        <r>  0.0660  0.0226  0.0431  0.0221  0.0238  0.2720  0.1337  0.0141  0.0591 </r>
       </set>
       <set comment="band 10">
        <r>  0.3150  0.0143  0.0083  0.0264  0.1278  0.0513  0.0066  0.0999  0.0176 </r>
       </set>
       <set comment="band 11">
        <r>  0.0007  0.0090  0.0051  0.0402  0.0381  0.0144  0.0537  0.0068  0.0263 </r>
       </set>
       <set comment="band 12">
        <r>  0.0364  0.0069  0.0852  0.1066  0.0209  0.0148  0.0226  0.0334  0.0227 </r>
       </set>
       <set comment="band 13">
        <r>  0.0035  0.1419  0.0553  0.0060  0.0144  0.0011  0.0356  0.0000  0.0002 </r>
       </set>
       <set comment="band 14">
        <r>  0.0001  0.0026  0.0049  0.0165  0.0318  0.0512  0.0033  0.0121  0.0983 </r>
       </set>
       <set comment="band 15">
        <r>  0.0002  0.0000  0.0042  0.0029  0.0830  0.0069  0.1330  0.0156  0.0004 </r>
       </set>
       <set comment="band 16">
        <r>  0.1351  0.0138  0.0008  0.0031  0.0315  0.0074  0.0091  0.0548  0.0004 </r>
       </set>
       <set comment="band 17">
        <r>  0.0697  0.1017  0.0582  0.0287  0.0064  0.0388  0.0249  0.0000  0.0456 </r>
       </set>
       <set comment="band 18">
        <r>  0.0052  0.0871  0.0606  0.0295  0.0037  0.0222  0.0004  0.0231  0.0396 </r>
       </set>
       <set comment="band 19">
        <r>  0.0272  0.0955  0.0366  0.0787  0.0000  0.0315  0.0467  0.0006  0.0451 </r>
       </set>
       <set comment="band 20">
        <r>  0.0000  0.0023  0.0025  0.0164  0.0002  0.0672  0.0082  0.0050  0.0009 </r>
       </set>
       <set comment="band 21">
        <r>  6.2850  0.0000  0.0000  0.0000  0.0000  0.0000  0.0000  0.0000  0.0000 </r>
       </set>
       <set comment="band 22">
        <r>  0.0015  0.0007  0.0178  0.0048  0.0612  0.0012  0.0103  0.0001  0.0124 </r>
       </set>
       <set comment="band 23">
        <r>  0.0202  0.0161  0.0386  0.0035  0.0246  0.0001  0.0043  0.0306  0.0408 </r>
       </set>
       <set comment="band 24">
        <r>  0.0098  0.0047  0.0762  0.0335  0.0293  0.0545  0.0025  0.0056  0.0117 </r>
       </set>
      </set>
      <set comment="kpoint 107">
       <set comment="band 1">
        <r>  0.0000  0.2456  0.3545  0.3836  0.0000  0.0000  0.0000  0.0000  0.0000 </r>
       </set>
       <set comment="band 2">
        <r>  0.0000  0.0521  0.3600  0.5769  0.0000  0.0000  0.0000  0.0000  0.0000 </r>
       </set>
       <set comment="band 3">
        <r>  0.0000  0.6929  0.2738  0.0266  0.0000  0.0000  0.0000  0.0000  0.0000 </r>
       </set>
       <set comment="band 4">
        <r>  0.0590  0.0000  0.0071  0.0059  0.0880  0.4028  0.0260  0.0384  0.0676 </r>
       </set>
       <set comment="band 5">
        <r>  0.0056  0.0143  0.0065  0.0011  0.1008  0.0035  0.3446  0.0169  0.1913 </r>
       </set>
       <set comment="band 6">
        <r>  0.0002  0.0081  0.0115  0.0260  0.3717  0.2079  0.0135  0.0313  0.0132 </r>
       </set>
       <set comment="band 7">
        <r>  0.0018  0.0003  0.0042  0.0021  0.0072  0.0005  0.2873  0.1398  0.4039 </r>
       </set>
       <set comment="band 8">
        <r>  0.0056  0.0000  0.0000  0.0005  0.1509  0.0298  0.0598  0.6026  0.0811 </r>
       </set>
       <set comment="band 9">
        <r>  0.2206  0.0183  0.0454  0.0119  0.0002  0.2157  0.0650  0.0169  0.0096 </r>
       </set>
       <set comment="band 10">
        <r>  0.1840  0.0153  0.0148  0.0671  0.1549  0.0000  0.0268  0.0750  0.0723 </r>
       </set>
       <set comment="band 11">
        <r>  0.0716  0.0163  0.0391  0.1166  0.0617  0.0066  0.0121  0.0395  0.1036 </r>
       </set>
       <set comment="band 12">
        <r>  0.0121  0.0458  0.1028  0.0000  0.0014  0.0478  0.1465  0.0027  0.0029 </r>
       </set>
       <set comment="band 13">
        <r>  0.0013  0.1087  0.0085  0.0052  0.0047  0.0460  0.0053  0.0000  0.0072 </r>
       </set>
       <set comment="band 14">
        <r>  0.0011  0.0000  0.0026  0.0107  0.0756  0.0467  0.0043  0.0074  0.0293 </r>
       </set>
       <set comment="band 15">
        <r>  0.0000  0.0002  0.0013  0.0106  0.0300  0.0150  0.0327  0.0134  0.0041 </r>
       </set>
       <set comment="band 16">
        <r>  0.1498  0.0750  0.0076  0.0014  0.0216  0.0154  0.0003  0.0045  0.0328 </r>
       </set>
       <set comment="band 17">
        <r>  0.0964  0.1344  0.0022  0.0008  0.0007  0.0707  0.0280  0.0043  0.0308 </r>
       </set>
       <set comment="band 18">
        <r>  0.0087  0.0000  0.0414  0.0237  0.0010  0.0104  0.0002  0.0259  0.0725 </r>
       </set>
       <set comment="band 19">
        <r>  6.2552  0.0003  0.0007  0.0000  0.0000  0.0003  0.0008  0.0000  0.0000 </r>
       </set>
       <set comment="band 20">
        <r>  0.0379  0.0460  0.0897  0.0006  0.0039  0.0409  0.1113  0.0023  0.0002 </r>
       </set>
       <set comment="band 21">
        <r>  0.0016  0.0210  0.0012  0.0360  0.0302  0.0096  0.0063  0.0055  0.0360 </r>
       </set>
       <set comment="band 22">
        <r>  0.0005  0.0122  0.0109  0.0017  0.0011  0.0235  0.0165  0.0015  0.0017 </r>
       </set>
       <set comment="band 23">
        <r>  0.0079  0.0000  0.0417  0.0575  0.0233  0.0276  0.0015  0.0195  0.0129 </r>
       </set>
       <set comment="band 24">
        <r>  0.0087  0.0059  0.0406  0.0054  0.0038  0.0012  0.0149  0.0157  0.0278 </r>
       </set>
      </set>
      <set comment="kpoint 108">
       <set comment="band 1">
        <r>  0.0000  0.2820  0.4183  0.2820  0.0000  0.0000  0.0000  0.0000  0.0000 </r>
       </set>
       <set comment="band 2">
        <r>  0.0000  0.2110  0.5691  0.2110  0.0000  0.0000  0.0000  0.0000  0.0000 </r>
       </set>
       <set comment="band 3">
        <r>  0.0000  0.4970  0.0000  0.4970  0.0000  0.0000  0.0000  0.0000  0.0000 </r>
       </set>
       <set comment="band 4">
        <r>  0.0910  0.0014  0.0073  0.0014  0.3404  0.0955  0.0381  0.0955  0.0000 </r>
       </set>
       <set comment="band 5">
        <r>  0.0012  0.0076  0.0004  0.0076  0.0072  0.0638  0.5716  0.0638  0.0000 </r>
       </set>
       <set comment="band 6">
        <r>  0.0071  0.0141  0.0281  0.0141  0.3085  0.1253  0.0339  0.1253  0.0000 </r>
       </set>
       <set comment="band 7">
        <r>  0.0000  0.0017  0.0000  0.0017  0.0000  0.1412  0.0000  0.1412  0.5616 </r>
       </set>
       <set comment="band 8">
        <r>  0.0000  0.0001  0.0000  0.0001  0.0000  0.3188  0.0000  0.3188  0.3086 </r>
       </set>
       <set comment="band 9">
        <r>  0.0003  0.0385  0.0642  0.0385  0.0981  0.0579  0.1769  0.0579  0.0000 </r>
       </set>
       <set comment="band 10">
        <r>  0.3981  0.0039  0.0011  0.0039  0.1086  0.1093  0.0023  0.1093  0.0000 </r>
       </set>
       <set comment="band 11">
        <r>  0.0299  0.0108  0.0937  0.0108  0.0001  0.0320  0.1300  0.0320  0.0000 </r>
       </set>
       <set comment="band 12">
        <r>  0.0000  0.1190  0.0000  0.1190  0.0000  0.0027  0.0000  0.0027  0.0742 </r>
       </set>
       <set comment="band 13">
        <r>  0.0246  0.0323  0.0376  0.0323  0.0889  0.0039  0.0001  0.0039  0.0000 </r>
       </set>
       <set comment="band 14">
        <r>  0.0000  0.0016  0.0000  0.0016  0.0000  0.0502  0.0000  0.0502  0.0943 </r>
       </set>
       <set comment="band 15">
        <r>  0.0010  0.0015  0.0255  0.0015  0.1004  0.0000  0.0871  0.0000  0.0000 </r>
       </set>
       <set comment="band 16">
        <r>  0.1751  0.0327  0.0122  0.0327  0.0014  0.0184  0.0457  0.0184  0.0000 </r>
       </set>
       <set comment="band 17">
        <r>  0.0277  0.0399  0.0130  0.0399  0.0197  0.0268  0.0144  0.0268  0.0000 </r>
       </set>
       <set comment="band 18">
        <r>  0.0251  0.0048  0.0511  0.0048  0.0779  0.0079  0.0744  0.0079  0.0000 </r>
       </set>
       <set comment="band 19">
        <r>  0.0000  0.1393  0.0000  0.1393  0.0000  0.0050  0.0000  0.0050  0.0988 </r>
       </set>
       <set comment="band 20">
        <r>  0.0000  0.0523  0.0000  0.0523  0.0000  0.0154  0.0000  0.0154  0.0360 </r>
       </set>
       <set comment="band 21">
        <r>  6.2898  0.0000  0.0000  0.0000  0.0000  0.0000  0.0000  0.0000  0.0000 </r>
       </set>
       <set comment="band 22">
        <r>  0.0010  0.0031  0.0280  0.0031  0.0586  0.0036  0.0060  0.0036  0.0000 </r>
       </set>
       <set comment="band 23">
        <r>  0.0458  0.0078  0.0268  0.0078  0.0931  0.0211  0.0000  0.0211  0.0000 </r>
       </set>
       <set comment="band 24">
        <r>  0.0000  0.0403  0.0000  0.0403  0.0000  0.0117  0.0000  0.0117  0.0410 </r>
       </set>
      </set>
      <set comment="kpoint 109">
       <set comment="band 1">
        <r>  0.0000  0.3269  0.3269  0.3269  0.0000  0.0000  0.0000  0.0000  0.0000 </r>
       </set>
       <set comment="band 2">
        <r>  0.0000  0.0100  0.4836  0.5016  0.0000  0.0000  0.0000  0.0000  0.0000 </r>
       </set>
       <set comment="band 3">
        <r>  0.0000  0.6535  0.1798  0.1618  0.0000  0.0000  0.0000  0.0000  0.0000 </r>
       </set>
       <set comment="band 4">
        <r>  0.1472  0.0003  0.0003  0.0003  0.1642  0.1642  0.0000  0.1642  0.0000 </r>
       </set>
       <set comment="band 5">
        <r>  0.0000  0.0000  0.0000  0.0000  0.0000  0.1758  0.0000  0.1727  0.4877 </r>
       </set>
       <set comment="band 6">
        <r>  0.0000  0.0000  0.0000  0.0000  0.2323  0.0566  0.4877  0.0596  0.0000 </r>
       </set>
       <set comment="band 7">
        <r>  0.0310  0.0580  0.0580  0.0580  0.0193  0.0193  0.0000  0.0193  0.0000 </r>
       </set>
       <set comment="band 8">
        <r>  0.0000  0.0001  0.0000  0.0001  0.0000  0.2812  0.0000  0.2792  0.3875 </r>
       </set>
       <set comment="band 9">
        <r>  0.0000  0.0000  0.0001  0.0000  0.3736  0.0924  0.3875  0.0945  0.0000 </r>
       </set>
       <set comment="band 10">
        <r>  0.3485  0.0079  0.0079  0.0079  0.1268  0.1268  0.0000  0.1268  0.0000 </r>
       </set>
       <set comment="band 11">
        <r>  0.0006  0.0042  0.0042  0.0042  0.0014  0.0014  0.0000  0.0014  0.0000 </r>
       </set>
       <set comment="band 12">
        <r>  0.0000  0.0821  0.0059  0.1300  0.0002  0.0041  0.0000  0.0026  0.0007 </r>
       </set>
       <set comment="band 13">
        <r>  0.0000  0.0632  0.1394  0.0153  0.0044  0.0005  0.0007  0.0020  0.0000 </r>
       </set>
       <set comment="band 14">
        <r>  0.0000  0.0026  0.0000  0.0027  0.0000  0.0507  0.0000  0.0495  0.2854 </r>
       </set>
       <set comment="band 15">
        <r>  0.0000  0.0009  0.0035  0.0008  0.0668  0.0161  0.2854  0.0173  0.0000 </r>
       </set>
       <set comment="band 16">
        <r>  0.0942  0.0063  0.0063  0.0063  0.0589  0.0589  0.0000  0.0589  0.0000 </r>
       </set>
       <set comment="band 17">
        <r>  0.0000  0.1519  0.0019  0.1808  0.0002  0.0167  0.0002  0.0140  0.0180 </r>
       </set>
       <set comment="band 18">
        <r>  0.0000  0.0711  0.2212  0.0423  0.0204  0.0039  0.0180  0.0066  0.0002 </r>
       </set>
       <set comment="band 19">
        <r>  0.0482  0.0262  0.0262  0.0262  0.0243  0.0243  0.0000  0.0243  0.0000 </r>
       </set>
       <set comment="band 20">
        <r>  6.2985  0.0000  0.0000  0.0000  0.0000  0.0000  0.0000  0.0000  0.0000 </r>
       </set>
       <set comment="band 21">
        <r>  0.0000  0.1052  0.0640  0.0077  0.0219  0.0026  0.0029  0.0361  0.0025 </r>
       </set>
       <set comment="band 22">
        <r>  0.0000  0.0127  0.0539  0.1103  0.0185  0.0378  0.0025  0.0044  0.0029 </r>
       </set>
       <set comment="band 23">
        <r>  0.1718  0.0000  0.0000  0.0000  0.0116  0.0116  0.0000  0.0116  0.0000 </r>
       </set>
       <set comment="band 24">
        <r>  0.0000  0.0062  0.0038  0.0005  0.0991  0.0118  0.0049  0.1628  0.0042 </r>
       </set>
      </set>
      <set comment="kpoint 110">
       <set comment="band 1">
        <r>  0.0000  0.3273  0.3273  0.3263  0.0000  0.0000  0.0000  0.0000  0.0000 </r>
       </set>
       <set comment="band 2">
        <r>  0.0000  0.1653  0.1653  0.6633  0.0000  0.0000  0.0000  0.0000  0.0000 </r>
       </set>
       <set comment="band 3">
        <r>  0.0000  0.4974  0.4974  0.0000  0.0000  0.0000  0.0000  0.0000  0.0000 </r>
       </set>
       <set comment="band 4">
        <r>  0.1299  0.0010  0.0010  0.0022  0.1590  0.1967  0.0001  0.1590  0.0003 </r>
       </set>
       <set comment="band 5">
        <r>  0.0000  0.0012  0.0012  0.0001  0.0557  0.1787  0.1286  0.0557  0.3857 </r>
       </set>
       <set comment="band 6">
        <r>  0.0000  0.0004  0.0004  0.0000  0.1617  0.0000  0.3853  0.1617  0.1284 </r>
       </set>
       <set comment="band 7">
        <r>  0.0011  0.0312  0.0312  0.0317  0.0750  0.1903  0.0292  0.0750  0.0875 </r>
       </set>
       <set comment="band 8">
        <r>  0.0000  0.0001  0.0001  0.0000  0.2947  0.0000  0.2672  0.2947  0.0891 </r>
       </set>
       <set comment="band 9">
        <r>  0.0077  0.0330  0.0330  0.0343  0.0272  0.2279  0.0580  0.0272  0.1739 </r>
       </set>
       <set comment="band 10">
        <r>  0.3832  0.0007  0.0007  0.0047  0.1388  0.1146  0.0008  0.1388  0.0024 </r>
       </set>
       <set comment="band 11">
        <r>  0.0001  0.0017  0.0017  0.0113  0.0060  0.0088  0.0052  0.0060  0.0156 </r>
       </set>
       <set comment="band 12">
        <r>  0.0140  0.0388  0.0388  0.1364  0.0156  0.0078  0.0039  0.0156  0.0118 </r>
       </set>
       <set comment="band 13">
        <r>  0.0000  0.1118  0.1118  0.0000  0.0000  0.0000  0.0227  0.0000  0.0076 </r>
       </set>
       <set comment="band 14">
        <r>  0.0012  0.0001  0.0001  0.0166  0.0013  0.0914  0.0492  0.0013  0.1475 </r>
       </set>
       <set comment="band 15">
        <r>  0.0000  0.0017  0.0017  0.0000  0.0621  0.0000  0.1766  0.0621  0.0589 </r>
       </set>
       <set comment="band 16">
        <r>  0.1261  0.0002  0.0002  0.0019  0.0769  0.0260  0.0021  0.0769  0.0063 </r>
       </set>
       <set comment="band 17">
        <r>  0.0224  0.0868  0.0868  0.0740  0.0005  0.0031  0.0080  0.0005  0.0239 </r>
       </set>
       <set comment="band 18">
        <r>  0.0346  0.0027  0.0027  0.1113  0.0007  0.0501  0.0116  0.0007  0.0347 </r>
       </set>
       <set comment="band 19">
        <r>  0.0000  0.1734  0.1734  0.0000  0.0002  0.0000  0.0297  0.0002  0.0099 </r>
       </set>
       <set comment="band 20">
        <r>  6.2928  0.0000  0.0000  0.0000  0.0000  0.0000  0.0000  0.0000  0.0000 </r>
       </set>
       <set comment="band 21">
        <r>  0.0042  0.0077  0.0077  0.0288  0.0064  0.0739  0.0001  0.0064  0.0002 </r>
       </set>
       <set comment="band 22">
        <r>  0.0000  0.0192  0.0192  0.0000  0.0432  0.0000  0.0053  0.0432  0.0018 </r>
       </set>
       <set comment="band 23">
        <r>  0.0881  0.0022  0.0022  0.0022  0.0057  0.1273  0.0007  0.0057  0.0020 </r>
       </set>
       <set comment="band 24">
        <r>  0.0000  0.0592  0.0592  0.0000  0.0503  0.0000  0.0015  0.0503  0.0005 </r>
       </set>
      </set>
     </set>
    </set>
   </array>
  </projected>
 </calculation>
 <structure name="finalpos" >
  <crystal>
   <varray name="basis" >
    <v>       0.00000000       1.93927166       1.93927166 </v>
    <v>       1.93927166       0.00000000       1.93927166 </v>
    <v>       1.93927166       1.93927166       0.00000000 </v>
   </varray>
   <i name="volume">     14.58632702 </i>
   <varray name="rec_basis" >
    <v>      -0.25782876       0.25782876       0.25782876 </v>
    <v>       0.25782876      -0.25782876       0.25782876 </v>
    <v>       0.25782876       0.25782876      -0.25782876 </v>
   </varray>
  </crystal>
  <varray name="positions" >
   <v>       0.00000000       0.00000000       0.00000000 </v>
  </varray>
 </structure>
</modeling>
