   2   2   0   0
  0.1064014E+02  0.2472000E-09  0.2472000E-09  0.4021144E-09  0.5000000E-15
  1.000000000000000E-004
  CAR 
 Co fcc                                  
     37.82072355     -0.49867002  301     10.48977033      1.00000000
     -0.499  0.0000E+00  0.0000E+00  0.0000E+00  0.0000E+00
     -0.371  0.0000E+00  0.0000E+00  0.0000E+00  0.0000E+00
     -0.243  0.0000E+00  0.0000E+00  0.0000E+00  0.0000E+00
     -0.115 -0.9264E-30 -0.2000E-30 -0.1183E-30 -0.2555E-31
      0.012 -0.1731E-25 -0.4224E-26 -0.2212E-26 -0.5396E-27
      0.140 -0.1420E-21 -0.3918E-22 -0.1815E-22 -0.5005E-23
      0.268 -0.5109E-18 -0.1593E-18 -0.6528E-19 -0.2035E-19
      0.395 -0.7779E-15 -0.2748E-15 -0.9943E-16 -0.3512E-16
      0.523 -0.5293E-12 -0.2116E-12 -0.6771E-13 -0.2706E-13
      0.651 -0.1558E-09 -0.7056E-10 -0.1997E-10 -0.9040E-11
      0.779 -0.1965E-07 -0.1010E-07 -0.2530E-08 -0.1300E-08
      0.906 -0.1045E-05 -0.6118E-06 -0.1360E-06 -0.7944E-07
      1.034 -0.2264E-04 -0.1519E-04 -0.3028E-05 -0.2020E-05
      1.162 -0.1828E-03 -0.1435E-03 -0.2638E-04 -0.2035E-04
      1.290 -0.3474E-03 -0.3702E-03 -0.7074E-04 -0.6764E-04
      1.417  0.1343E-02  0.8819E-03  0.1008E-03  0.4500E-04
      1.545  0.5914E-02  0.5168E-02  0.8561E-03  0.7051E-03
      1.673  0.1082E-01  0.9962E-02  0.2239E-02  0.1978E-02
      1.800  0.2332E-01  0.1995E-01  0.5218E-02  0.4525E-02
      1.928  0.5551E-01  0.4912E-01  0.1231E-01  0.1080E-01
      2.056  0.7692E-01  0.7653E-01  0.2213E-01  0.2058E-01
      2.184  0.4368E-01  0.5222E-01  0.2771E-01  0.2725E-01
      2.311  0.1054E-01  0.1133E-01  0.2906E-01  0.2869E-01
      2.439  0.4706E-01  0.3457E-01  0.3507E-01  0.3311E-01
      2.567  0.9563E-01  0.8872E-01  0.4728E-01  0.4444E-01
      2.695  0.9296E-01  0.9540E-01  0.5916E-01  0.5663E-01
      2.822  0.7341E-01  0.7485E-01  0.6853E-01  0.6619E-01
      2.950  0.8242E-01  0.7149E-01  0.7906E-01  0.7532E-01
      3.078  0.1295E+00  0.1116E+00  0.9561E-01  0.8957E-01
      3.206  0.1395E+00  0.1438E+00  0.1134E+00  0.1079E+00
      3.333  0.8889E-01  0.1033E+00  0.1248E+00  0.1211E+00
      3.461  0.5484E-01  0.6240E-01  0.1318E+00  0.1291E+00
      3.589  0.2641E-01  0.3819E-01  0.1352E+00  0.1340E+00
      3.716  0.7251E-01  0.2729E-01  0.1444E+00  0.1375E+00
      3.844  0.1965E+00  0.1222E+00  0.1695E+00  0.1531E+00
      3.972  0.2285E+00  0.2148E+00  0.1987E+00  0.1805E+00
      4.100  0.1930E+00  0.1971E+00  0.2233E+00  0.2057E+00
      4.227  0.1954E+00  0.1614E+00  0.2483E+00  0.2263E+00
      4.355  0.1733E+00  0.1706E+00  0.2704E+00  0.2481E+00
      4.483  0.1029E+00  0.1614E+00  0.2836E+00  0.2687E+00
      4.611  0.1437E+00  0.9051E-01  0.3019E+00  0.2803E+00
      4.738  0.2333E+00  0.8461E-01  0.3317E+00  0.2911E+00
      4.866  0.2241E+00  0.1805E+00  0.3603E+00  0.3141E+00
      4.994  0.1874E+00  0.2290E+00  0.3843E+00  0.3434E+00
      5.122  0.3215E+00  0.1553E+00  0.4254E+00  0.3632E+00
      5.249  0.6574E+00  0.1377E+00  0.5093E+00  0.3808E+00
      5.377  0.1001E+01  0.2148E+00  0.6371E+00  0.4082E+00
      5.505  0.1052E+01  0.2720E+00  0.7715E+00  0.4430E+00
      5.632  0.8406E+00  0.3412E+00  0.8789E+00  0.4866E+00
      5.760  0.9766E+00  0.3621E+00  0.1004E+01  0.5328E+00
      5.888  0.1687E+01  0.3568E+00  0.1219E+01  0.5784E+00
      6.016  0.1818E+01  0.4561E+00  0.1451E+01  0.6366E+00
      6.143  0.1509E+01  0.3119E+00  0.1644E+01  0.6765E+00
      6.271  0.1709E+01  0.1541E+00  0.1862E+01  0.6962E+00
      6.399  0.1796E+01  0.5523E+00  0.2092E+01  0.7667E+00
      6.527  0.1491E+01  0.1073E+01  0.2282E+01  0.9037E+00
      6.654  0.1525E+01  0.1025E+01  0.2477E+01  0.1035E+01
      6.782  0.1843E+01  0.7790E+00  0.2713E+01  0.1134E+01
      6.910  0.2049E+01  0.8062E+00  0.2974E+01  0.1237E+01
      7.037  0.2114E+01  0.1076E+01  0.3244E+01  0.1375E+01
      7.165  0.1987E+01  0.1138E+01  0.3498E+01  0.1520E+01
      7.293  0.1601E+01  0.9884E+00  0.3703E+01  0.1646E+01
      7.421  0.1273E+01  0.1347E+01  0.3865E+01  0.1818E+01
      7.548  0.1658E+01  0.1641E+01  0.4077E+01  0.2028E+01
      7.676  0.2510E+01  0.1267E+01  0.4398E+01  0.2190E+01
      7.804  0.2803E+01  0.1043E+01  0.4756E+01  0.2323E+01
      7.932  0.2777E+01  0.1284E+01  0.5110E+01  0.2487E+01
      8.059  0.2858E+01  0.1608E+01  0.5475E+01  0.2693E+01
      8.187  0.2918E+01  0.1716E+01  0.5848E+01  0.2912E+01
      8.315  0.3055E+01  0.1880E+01  0.6238E+01  0.3152E+01
      8.443  0.2894E+01  0.2011E+01  0.6608E+01  0.3409E+01
      8.570  0.2417E+01  0.1650E+01  0.6917E+01  0.3619E+01
      8.698  0.1977E+01  0.1063E+01  0.7169E+01  0.3755E+01
      8.826  0.1787E+01  0.7823E+00  0.7397E+01  0.3855E+01
      8.953  0.1595E+01  0.9761E+00  0.7601E+01  0.3980E+01
      9.081  0.1539E+01  0.1459E+01  0.7798E+01  0.4166E+01
      9.209  0.2051E+01  0.2072E+01  0.8060E+01  0.4431E+01
      9.337  0.2179E+01  0.2545E+01  0.8338E+01  0.4756E+01
      9.464  0.1906E+01  0.2536E+01  0.8582E+01  0.5080E+01
      9.592  0.2489E+01  0.2304E+01  0.8899E+01  0.5374E+01
      9.720  0.3807E+01  0.2453E+01  0.9386E+01  0.5688E+01
      9.848  0.4298E+01  0.2723E+01  0.9935E+01  0.6035E+01
      9.975  0.2866E+01  0.2724E+01  0.1030E+02  0.6383E+01
     10.103  0.1017E+01  0.2346E+01  0.1043E+02  0.6683E+01
     10.231  0.5355E+00  0.1869E+01  0.1050E+02  0.6922E+01
     10.358  0.7066E+00  0.1639E+01  0.1059E+02  0.7131E+01
     10.486  0.5488E+00  0.1588E+01  0.1066E+02  0.7334E+01
     10.614  0.2386E+00  0.1357E+01  0.1069E+02  0.7507E+01
     10.742  0.4959E-01  0.1263E+01  0.1070E+02  0.7669E+01
     10.869 -0.2356E-01  0.1285E+01  0.1069E+02  0.7833E+01
     10.997  0.2269E-01  0.1654E+01  0.1070E+02  0.8044E+01
     11.125  0.2491E+00  0.1854E+01  0.1073E+02  0.8281E+01
     11.253  0.4100E+00  0.1500E+01  0.1078E+02  0.8472E+01
     11.380  0.2718E+00  0.1626E+01  0.1082E+02  0.8680E+01
     11.508  0.2062E+00  0.2370E+01  0.1084E+02  0.8983E+01
     11.636  0.4458E+00  0.3440E+01  0.1090E+02  0.9422E+01
     11.764  0.5836E+00  0.4013E+01  0.1097E+02  0.9935E+01
     11.891  0.4230E+00  0.3254E+01  0.1103E+02  0.1035E+02
     12.019  0.2126E+00  0.1832E+01  0.1105E+02  0.1058E+02
     12.147  0.9056E-01  0.7317E+00  0.1107E+02  0.1068E+02
     12.274  0.2202E+00  0.2142E+00  0.1109E+02  0.1071E+02
     12.402  0.3796E+00  0.2008E+00  0.1114E+02  0.1073E+02
     12.530  0.4042E+00  0.3109E+00  0.1119E+02  0.1077E+02
     12.658  0.2509E+00  0.2775E+00  0.1123E+02  0.1081E+02
     12.785  0.7415E-01  0.3087E+00  0.1124E+02  0.1085E+02
     12.913  0.1706E+00  0.4785E+00  0.1126E+02  0.1091E+02
     13.041  0.2422E+00  0.5287E+00  0.1129E+02  0.1097E+02
     13.169  0.9508E-01  0.3860E+00  0.1130E+02  0.1102E+02
     13.296  0.6371E-01  0.3119E+00  0.1131E+02  0.1106E+02
     13.424  0.1878E+00  0.4458E+00  0.1133E+02  0.1112E+02
     13.552  0.2000E+00  0.4674E+00  0.1136E+02  0.1118E+02
     13.680  0.1280E+00  0.2839E+00  0.1137E+02  0.1122E+02
     13.807  0.2361E+00  0.1486E+00  0.1140E+02  0.1124E+02
     13.935  0.4108E+00  0.1547E+00  0.1146E+02  0.1125E+02
     14.063  0.4596E+00  0.2560E+00  0.1152E+02  0.1129E+02
     14.190  0.3604E+00  0.2394E+00  0.1156E+02  0.1132E+02
     14.318  0.2325E+00  0.1668E+00  0.1159E+02  0.1134E+02
     14.446  0.1459E+00  0.1266E+00  0.1161E+02  0.1136E+02
     14.574  0.1113E+00  0.1045E+00  0.1162E+02  0.1137E+02
     14.701  0.2550E+00  0.2103E+00  0.1166E+02  0.1140E+02
     14.829  0.3517E+00  0.4586E+00  0.1170E+02  0.1145E+02
     14.957  0.2307E+00  0.5086E+00  0.1173E+02  0.1152E+02
     15.085  0.8159E-01  0.4018E+00  0.1174E+02  0.1157E+02
     15.212  0.4895E-01  0.2737E+00  0.1175E+02  0.1161E+02
     15.340  0.1686E+00  0.1052E+00  0.1177E+02  0.1162E+02
     15.468  0.2582E+00  0.8635E-01  0.1180E+02  0.1163E+02
     15.595  0.2166E+00  0.2305E+00  0.1183E+02  0.1166E+02
     15.723  0.1837E+00  0.3306E+00  0.1185E+02  0.1170E+02
     15.851  0.8938E-01  0.2232E+00  0.1186E+02  0.1173E+02
     15.979  0.3178E-01  0.1329E+00  0.1187E+02  0.1175E+02
     16.106  0.8861E-01  0.2423E+00  0.1188E+02  0.1178E+02
     16.234  0.9054E-01  0.2565E+00  0.1189E+02  0.1181E+02
     16.362  0.2144E-01  0.1514E+00  0.1189E+02  0.1183E+02
     16.490  0.4164E-02  0.1632E+00  0.1190E+02  0.1185E+02
     16.617  0.8943E-01  0.1187E+00  0.1191E+02  0.1187E+02
     16.745  0.2228E+00  0.7103E-01  0.1194E+02  0.1188E+02
     16.873  0.2469E+00  0.8076E-01  0.1197E+02  0.1189E+02
     17.001  0.1529E+00  0.5343E-01  0.1199E+02  0.1189E+02
     17.128  0.9948E-01  0.2531E-01  0.1200E+02  0.1190E+02
     17.256  0.1346E+00  0.8344E-01  0.1202E+02  0.1191E+02
     17.384  0.1526E+00  0.1900E+00  0.1204E+02  0.1193E+02
     17.511  0.1577E+00  0.2127E+00  0.1206E+02  0.1196E+02
     17.639  0.1955E+00  0.1357E+00  0.1208E+02  0.1198E+02
     17.767  0.1259E+00  0.6841E-01  0.1210E+02  0.1198E+02
     17.895  0.4976E-01  0.6572E-01  0.1210E+02  0.1199E+02
     18.022  0.1271E+00  0.1306E+00  0.1212E+02  0.1201E+02
     18.150  0.2883E+00  0.2047E+00  0.1216E+02  0.1204E+02
     18.278  0.4291E+00  0.2374E+00  0.1221E+02  0.1207E+02
     18.406  0.4114E+00  0.1977E+00  0.1226E+02  0.1209E+02
     18.533  0.3696E+00  0.6509E-01  0.1231E+02  0.1210E+02
     18.661  0.3024E+00  0.9307E-02  0.1235E+02  0.1210E+02
     18.789  0.2043E+00  0.8359E-01  0.1238E+02  0.1211E+02
     18.916  0.3464E+00  0.1653E+00  0.1242E+02  0.1213E+02
     19.044  0.4894E+00  0.3226E+00  0.1248E+02  0.1217E+02
     19.172  0.4423E+00  0.5263E+00  0.1254E+02  0.1224E+02
     19.300  0.4133E+00  0.4412E+00  0.1259E+02  0.1230E+02
     19.427  0.3427E+00  0.3262E+00  0.1264E+02  0.1234E+02
     19.555  0.2124E+00  0.3714E+00  0.1266E+02  0.1239E+02
     19.683  0.1828E+00  0.4789E+00  0.1269E+02  0.1245E+02
     19.811  0.2495E+00  0.5437E+00  0.1272E+02  0.1252E+02
     19.938  0.3397E+00  0.4450E+00  0.1276E+02  0.1257E+02
     20.066  0.3933E+00  0.3042E+00  0.1281E+02  0.1261E+02
     20.194  0.3683E+00  0.2677E+00  0.1286E+02  0.1265E+02
     20.322  0.3543E+00  0.2949E+00  0.1290E+02  0.1268E+02
     20.449  0.2316E+00  0.3495E+00  0.1293E+02  0.1273E+02
     20.577  0.1328E+00  0.3781E+00  0.1295E+02  0.1278E+02
     20.705  0.3262E+00  0.3479E+00  0.1299E+02  0.1282E+02
     20.832  0.5348E+00  0.3039E+00  0.1306E+02  0.1286E+02
     20.960  0.4973E+00  0.3254E+00  0.1312E+02  0.1290E+02
     21.088  0.3191E+00  0.2340E+00  0.1316E+02  0.1293E+02
     21.216  0.4140E+00  0.1838E+00  0.1322E+02  0.1296E+02
     21.343  0.5828E+00  0.4862E+00  0.1329E+02  0.1302E+02
     21.471  0.5201E+00  0.6725E+00  0.1336E+02  0.1310E+02
     21.599  0.4420E+00  0.4929E+00  0.1341E+02  0.1317E+02
     21.727  0.2718E+00  0.3913E+00  0.1345E+02  0.1322E+02
     21.854  0.1294E+00  0.4677E+00  0.1347E+02  0.1328E+02
     21.982  0.1576E+00  0.4440E+00  0.1349E+02  0.1333E+02
     22.110  0.2434E+00  0.4420E+00  0.1352E+02  0.1339E+02
     22.238  0.3141E+00  0.3834E+00  0.1356E+02  0.1344E+02
     22.365  0.3974E+00  0.2335E+00  0.1361E+02  0.1347E+02
     22.493  0.5288E+00  0.2166E+00  0.1368E+02  0.1350E+02
     22.621  0.4806E+00  0.2361E+00  0.1374E+02  0.1353E+02
     22.748  0.2294E+00  0.2600E+00  0.1377E+02  0.1356E+02
     22.876  0.1701E+00  0.4207E+00  0.1379E+02  0.1361E+02
     23.004  0.2014E+00  0.5687E+00  0.1381E+02  0.1369E+02
     23.132  0.1324E+00  0.4265E+00  0.1383E+02  0.1374E+02
     23.259  0.2159E+00  0.1930E+00  0.1386E+02  0.1376E+02
     23.387  0.3175E+00  0.1951E+00  0.1390E+02  0.1379E+02
     23.515  0.3339E+00  0.2149E+00  0.1394E+02  0.1382E+02
     23.643  0.4092E+00  0.1361E+00  0.1399E+02  0.1383E+02
     23.770  0.3058E+00  0.2063E+00  0.1403E+02  0.1386E+02
     23.898  0.1359E+00  0.3754E+00  0.1405E+02  0.1391E+02
     24.026  0.2454E+00  0.4412E+00  0.1408E+02  0.1396E+02
     24.153  0.3737E+00  0.3817E+00  0.1413E+02  0.1401E+02
     24.281  0.2657E+00  0.1967E+00  0.1416E+02  0.1404E+02
     24.409  0.3369E+00  0.1199E+00  0.1421E+02  0.1405E+02
     24.537  0.5415E+00  0.2929E+00  0.1428E+02  0.1409E+02
     24.664  0.5049E+00  0.4025E+00  0.1434E+02  0.1414E+02
     24.792  0.3786E+00  0.3672E+00  0.1439E+02  0.1419E+02
     24.920  0.2455E+00  0.4527E+00  0.1442E+02  0.1425E+02
     25.048  0.1188E+00  0.5094E+00  0.1443E+02  0.1431E+02
     25.175  0.1839E+00  0.4115E+00  0.1446E+02  0.1437E+02
     25.303  0.3775E+00  0.3051E+00  0.1451E+02  0.1440E+02
     25.431  0.4214E+00  0.1795E+00  0.1456E+02  0.1443E+02
     25.559  0.3274E+00  0.1305E+00  0.1460E+02  0.1444E+02
     25.686  0.3457E+00  0.3217E+00  0.1465E+02  0.1448E+02
     25.814  0.3935E+00  0.4506E+00  0.1470E+02  0.1454E+02
     25.942  0.2653E+00  0.3729E+00  0.1473E+02  0.1459E+02
     26.069  0.2458E+00  0.3502E+00  0.1476E+02  0.1463E+02
     26.197  0.4507E+00  0.3774E+00  0.1482E+02  0.1468E+02
     26.325  0.5062E+00  0.3319E+00  0.1488E+02  0.1473E+02
     26.453  0.3704E+00  0.3185E+00  0.1493E+02  0.1477E+02
     26.580  0.2922E+00  0.4487E+00  0.1497E+02  0.1482E+02
     26.708  0.4054E+00  0.5196E+00  0.1502E+02  0.1489E+02
     26.836  0.4532E+00  0.4023E+00  0.1508E+02  0.1494E+02
     26.964  0.2318E+00  0.2972E+00  0.1511E+02  0.1498E+02
     27.091  0.1521E+00  0.3982E+00  0.1513E+02  0.1503E+02
     27.219  0.2330E+00  0.4460E+00  0.1516E+02  0.1509E+02
     27.347  0.2279E+00  0.2396E+00  0.1519E+02  0.1512E+02
     27.474  0.1259E+00  0.1671E+00  0.1520E+02  0.1514E+02
     27.602  0.7638E-01  0.2204E+00  0.1521E+02  0.1517E+02
     27.730  0.2343E+00  0.1925E+00  0.1524E+02  0.1519E+02
     27.858  0.4166E+00  0.9983E-01  0.1529E+02  0.1520E+02
     27.985  0.3734E+00  0.1290E+00  0.1534E+02  0.1522E+02
     28.113  0.1994E+00  0.3295E+00  0.1537E+02  0.1526E+02
     28.241  0.1723E+00  0.4473E+00  0.1539E+02  0.1532E+02
     28.369  0.2135E+00  0.3415E+00  0.1542E+02  0.1536E+02
     28.496  0.2147E+00  0.2058E+00  0.1544E+02  0.1539E+02
     28.624  0.2245E+00  0.1602E+00  0.1547E+02  0.1541E+02
     28.752  0.2062E+00  0.1659E+00  0.1550E+02  0.1543E+02
     28.880  0.1803E+00  0.2324E+00  0.1552E+02  0.1546E+02
     29.007  0.1537E+00  0.2841E+00  0.1554E+02  0.1550E+02
     29.135  0.9339E-01  0.2028E+00  0.1555E+02  0.1552E+02
     29.263  0.9696E-01  0.1068E+00  0.1557E+02  0.1554E+02
     29.390  0.1709E+00  0.1058E+00  0.1559E+02  0.1555E+02
     29.518  0.1816E+00  0.1499E+00  0.1561E+02  0.1557E+02
     29.646  0.1542E+00  0.1804E+00  0.1563E+02  0.1559E+02
     29.774  0.1696E+00  0.1366E+00  0.1565E+02  0.1561E+02
     29.901  0.2196E+00  0.1178E+00  0.1568E+02  0.1563E+02
     30.029  0.1738E+00  0.2193E+00  0.1570E+02  0.1565E+02
     30.157  0.9870E-01  0.2458E+00  0.1572E+02  0.1568E+02
     30.285  0.1255E+00  0.1466E+00  0.1573E+02  0.1570E+02
     30.412  0.1105E+00  0.1044E+00  0.1575E+02  0.1572E+02
     30.540  0.5600E-01  0.1486E+00  0.1575E+02  0.1574E+02
     30.668  0.5953E-01  0.1429E+00  0.1576E+02  0.1575E+02
     30.796  0.8736E-01  0.6733E-01  0.1577E+02  0.1576E+02
     30.923  0.1069E+00  0.2503E-01  0.1579E+02  0.1577E+02
     31.051  0.9122E-01  0.7247E-01  0.1580E+02  0.1578E+02
     31.179  0.1056E+00  0.1270E+00  0.1581E+02  0.1579E+02
     31.306  0.8612E-01  0.1349E+00  0.1582E+02  0.1581E+02
     31.434  0.1874E-01  0.9628E-01  0.1582E+02  0.1582E+02
     31.562  0.2547E-03  0.3581E-01  0.1582E+02  0.1583E+02
     31.690  0.3108E-01  0.2054E-01  0.1583E+02  0.1583E+02
     31.817  0.8642E-01  0.4842E-01  0.1584E+02  0.1583E+02
     31.945  0.1433E+00  0.5282E-01  0.1586E+02  0.1584E+02
     32.073  0.1300E+00  0.9053E-01  0.1587E+02  0.1585E+02
     32.201  0.3991E-01  0.1320E+00  0.1588E+02  0.1587E+02
     32.328 -0.1942E-02  0.7877E-01  0.1588E+02  0.1588E+02
     32.456  0.3162E-01  0.5365E-01  0.1588E+02  0.1589E+02
     32.584  0.6052E-01  0.6378E-01  0.1589E+02  0.1589E+02
     32.711  0.3545E-01  0.2441E-01  0.1590E+02  0.1590E+02
     32.839  0.2827E-01 -0.3557E-02  0.1590E+02  0.1590E+02
     32.967  0.1005E+00  0.2260E-01  0.1591E+02  0.1590E+02
     33.095  0.1978E+00  0.9746E-01  0.1594E+02  0.1591E+02
     33.222  0.1607E+00  0.1647E+00  0.1596E+02  0.1593E+02
     33.350  0.5203E-01  0.1593E+00  0.1596E+02  0.1595E+02
     33.478  0.4615E-01  0.1156E+00  0.1597E+02  0.1597E+02
     33.606  0.6122E-01  0.7205E-01  0.1598E+02  0.1598E+02
     33.733  0.1993E-01  0.2387E-01  0.1598E+02  0.1598E+02
     33.861 -0.3092E-02  0.6243E-02  0.1598E+02  0.1598E+02
     33.989  0.1917E-02  0.5661E-02  0.1598E+02  0.1598E+02
     34.117  0.9447E-02  0.7465E-03  0.1598E+02  0.1598E+02
     34.244  0.5939E-02 -0.2088E-02  0.1598E+02  0.1598E+02
     34.372 -0.7898E-03  0.1397E-02  0.1598E+02  0.1598E+02
     34.500  0.7410E-02  0.2167E-01  0.1598E+02  0.1599E+02
     34.627  0.2947E-01  0.3842E-01  0.1599E+02  0.1599E+02
     34.755  0.3507E-01  0.2705E-01  0.1599E+02  0.1599E+02
     34.883  0.2192E-01  0.1057E-01  0.1599E+02  0.1599E+02
     35.011  0.6897E-02  0.1367E-02  0.1600E+02  0.1600E+02
     35.138 -0.6295E-03 -0.1211E-02  0.1600E+02  0.1599E+02
     35.266 -0.1610E-02  0.1502E-02  0.1599E+02  0.1600E+02
     35.394  0.1456E-02  0.8196E-02  0.1600E+02  0.1600E+02
     35.522  0.1386E-01  0.8269E-02  0.1600E+02  0.1600E+02
     35.649  0.1925E-01  0.3860E-02  0.1600E+02  0.1600E+02
     35.777  0.6934E-02  0.7415E-02  0.1600E+02  0.1600E+02
     35.905 -0.6560E-03  0.8387E-02  0.1600E+02  0.1600E+02
     36.032 -0.5662E-03  0.2502E-02  0.1600E+02  0.1600E+02
     36.160 -0.6994E-04 -0.3549E-03  0.1600E+02  0.1600E+02
     36.288 -0.3070E-05 -0.2226E-03  0.1600E+02  0.1600E+02
     36.416 -0.5431E-07 -0.2647E-04  0.1600E+02  0.1600E+02
     36.543 -0.4043E-09 -0.1166E-05  0.1600E+02  0.1600E+02
     36.671 -0.1291E-11 -0.2115E-07  0.1600E+02  0.1600E+02
     36.799 -0.1786E-14 -0.1635E-09  0.1600E+02  0.1600E+02
     36.927  0.0000E+00 -0.5461E-12  0.1600E+02  0.1600E+02
     37.054  0.0000E+00 -0.7953E-15  0.1600E+02  0.1600E+02
     37.182  0.0000E+00  0.0000E+00  0.1600E+02  0.1600E+02
     37.310  0.0000E+00  0.0000E+00  0.1600E+02  0.1600E+02
     37.438  0.0000E+00  0.0000E+00  0.1600E+02  0.1600E+02
     37.565  0.0000E+00  0.0000E+00  0.1600E+02  0.1600E+02
     37.693  0.0000E+00  0.0000E+00  0.1600E+02  0.1600E+02
     37.821  0.0000E+00  0.0000E+00  0.1600E+02  0.1600E+02
