    2    2    1    2
  0.2137190E+02  0.2470000E-09  0.2470000E-09  0.8090000E-09  0.5000000E-15
  1.000000000000000E-004
  CAR 
 Co fcc                                  
     18     21     16
 
  0.0000000E+00  0.0000000E+00  0.0000000E+00  0.6944444E-02
      1         -3.005015       -2.774268   1.000000   1.000000
      2         -2.545111       -2.130415   1.000000   1.000000
      3         -0.294591        1.492738   1.000000   1.000000
      4          0.716427        2.180780   1.000000   1.000000
      5          0.716427        2.566642   1.000000   1.003135
      6          0.717102        2.566643   1.000000   1.003135
      7          0.717102        2.567604   1.000000   1.003194
      8          0.729250        2.567605   1.000000   1.003194
      9          1.421886        2.702221   1.000000   1.023795
     10          1.421886        3.846277   1.000000  -0.000000
     11          1.425088        3.846277   1.000000  -0.000000
     12          1.425088        3.850513   1.000000  -0.000000
     13          2.135277        3.850513   1.000000  -0.000000
     14          6.411543        6.700443  -0.000000  -0.000000
     15         10.843818       11.196933   0.000000   0.000000
     16         18.800034       18.784918   0.000000   0.000000
 
  0.1666667E+00 -0.1387779E-16  0.0000000E+00  0.4166667E-01
      1         -2.039696       -1.780370   1.000000   1.000000
      2         -1.649202       -1.142523   1.000000   1.000000
      3         -0.002749        1.847129   1.000000   1.000000
      4          0.477973        1.986224   1.000000   1.000000
      5          0.487243        2.248382   1.000000   1.000000
      6          0.521437        2.264941   1.000000   1.000001
      7          0.801042        2.913504   1.000000   0.885001
      8          0.993900        2.946135   1.000000   0.787042
      9          1.126147        3.023962   1.000000   0.479312
     10          1.127030        3.025278   1.000000   0.473751
     11          1.341424        3.750148   1.000000  -0.000002
     12          1.347735        3.758962   1.000000  -0.000001
     13          3.726657        4.672672  -0.000003  -0.000000
     14          7.846287        8.392876  -0.000000  -0.000000
     15         11.469546       11.737092   0.000000   0.000000
     16         19.942369       19.975306   0.000000   0.000000
 
  0.3333333E+00 -0.2775558E-16  0.0000000E+00  0.4166667E-01
      1         -0.905051        0.179073   1.000000   1.000000
      2         -0.856111        0.404413   1.000000   1.000000
      3         -0.201190        1.624527   1.000000   1.000000
      4         -0.041308        1.968744   1.000000   1.000000
      5          0.618688        2.388862   1.000000   1.000039
      6          0.783712        2.763460   1.000000   1.035051
      7          1.183507        2.843192   1.000000   1.007665
      8          1.194256        3.537385   1.000000  -0.000762
      9          1.769876        3.562272   1.000000  -0.000418
     10          2.024371        3.577577   1.000000  -0.000284
     11          2.024930        4.041817   1.000000  -0.000000
     12          2.702015        4.042716   1.023747  -0.000000
     13          6.698719        7.168927  -0.000000  -0.000000
     14         11.072084       11.686901   0.000000   0.000000
     15         13.011220       13.193657   0.000000   0.000000
     16         14.215863       14.712539   0.000000   0.000000
 
  0.5000000E+00 -0.5551115E-16  0.0000000E+00  0.2083333E-01
      1         -1.044651        0.350898   1.000000   1.000000
      2         -1.041590        0.365492   1.000000   1.000000
      3         -0.443526        1.482702   1.000000   1.000000
      4         -0.376946        1.596076   1.000000   1.000000
      5          0.934492        3.187067   1.000000   0.000419
      6          1.029089        3.328170   1.000000  -0.025586
      7          1.105755        3.470041   1.000000  -0.003225
      8          1.118408        3.488173   1.000000  -0.002245
      9          2.523210        4.618795   1.001270  -0.000000
     10          2.523252        4.618855   1.001271  -0.000000
     11          5.237235        5.266856  -0.000000  -0.000000
     12          5.590852        5.645264  -0.000000  -0.000000
     13          9.218706       10.095130   0.000000   0.000000
     14         10.037582       10.738958   0.000000   0.000000
     15         10.440434       10.964784   0.000000   0.000000
     16         11.576448       11.849467   0.000000   0.000000
 
  0.1666667E+00  0.1666667E+00  0.0000000E+00  0.4166667E-01
      1         -0.530304       -0.033557   1.000000   1.000000
      2         -0.394102        0.493255   1.000000   1.000000
      3          0.013690        1.763328   1.000000   1.000000
      4          0.105164        1.769554   1.000000   1.000000
      5          0.109126        1.775956   1.000000   1.000000
      6          0.222413        2.265921   1.000000   1.000001
      7          0.514093        2.442345   1.000000   1.000176
      8          1.127223        3.227438   1.000000  -0.028942
      9          1.135123        3.486226   1.000000  -0.002337
     10          1.219769        3.498192   1.000000  -0.001823
     11          2.186383        4.005755   1.000000  -0.000000
     12          2.576159        4.140372   1.003764  -0.000000
     13          5.801598        6.388613  -0.000000  -0.000000
     14         10.148805       10.784618   0.000000   0.000000
     15         12.776006       12.912765   0.000000   0.000000
     16         18.268184       18.596897   0.000000   0.000000
 
  0.3333333E+00  0.1666667E+00  0.0000000E+00  0.8333333E-01
      1         -0.474743        0.947685   1.000000   1.000000
      2         -0.468257        0.982605   1.000000   1.000000
      3         -0.242326        1.701415   1.000000   1.000000
      4         -0.153896        1.868543   1.000000   1.000000
      5          0.825944        2.658667   1.000000   1.014354
      6          0.838170        2.729325   1.000000   1.029864
      7          0.851690        3.123162   1.000000   0.118874
      8          0.875490        3.128172   1.000000   0.105939
      9          1.359608        3.142335   1.000000   0.072797
     10          1.521706        3.452548   1.000000  -0.004487
     11          5.158039        6.108548  -0.000000  -0.000000
     12          5.977825        6.784085  -0.000000  -0.000000
     13          9.400075        9.759512   0.000000   0.000000
     14         11.324268       11.947290   0.000000   0.000000
     15         12.348890       12.993950   0.000000   0.000000
     16         13.403910       13.972702   0.000000   0.000000
 
  0.3333333E+00  0.3333333E+00  0.0000000E+00  0.1388889E-01
      1          0.173479        1.908668   1.000000   1.000000
      2          0.210151        1.939558   1.000000   1.000000
      3          0.210151        1.939558   1.000000   1.000000
      4          0.249057        1.977385   1.000000   1.000000
      5          0.443495        2.265952   1.000000   1.000001
      6          0.458810        2.327692   1.000000   1.000006
      7          0.458810        2.327692   1.000000   1.000006
      8          0.479907        2.394327   1.000000   1.000046
      9          0.963439        3.319565   1.000000  -0.027541
     10          0.963439        3.319566   1.000000  -0.027541
     11          9.682452       10.210479   0.000000   0.000000
     12          9.937632       10.508602   0.000000   0.000000
     13          9.937633       10.508603   0.000000   0.000000
     14         10.588913       11.205452   0.000000   0.000000
     15         12.041642       12.799156   0.000000   0.000000
     16         12.041642       12.799157   0.000000   0.000000
 
  0.0000000E+00  0.0000000E+00  0.2500000E+00  0.1388889E-01
      1         -2.940270       -2.693238   1.000000   1.000000
      2         -2.614340       -2.240920   1.000000   1.000000
      3         -0.229221        1.522679   1.000000   1.000000
      4          0.387306        1.868984   1.000000   1.000000
      5          0.716496        2.566751   1.000000   1.003141
      6          0.716496        2.566752   1.000000   1.003141
      7          0.717039        2.567518   1.000000   1.003189
      8          0.717039        2.567519   1.000000   1.003189
      9          1.422353        3.375842   1.000000  -0.015060
     10          1.422353        3.846904   1.000000  -0.000000
     11          1.424548        3.846904   1.000000  -0.000000
     12          1.424548        3.849814   1.000000  -0.000000
     13          2.805799        3.849814   1.030714  -0.000000
     14          5.579095        5.931874  -0.000000  -0.000000
     15         11.944834       12.245052   0.000000   0.000000
     16         16.851623       16.987394   0.000000   0.000000
 
  0.1666667E+00 -0.1387779E-16  0.2500000E+00  0.8333333E-01
      1         -1.981864       -1.700323   1.000000   1.000000
      2         -1.704514       -1.252364   1.000000   1.000000
      3          0.048042        1.856378   1.000000   1.000000
      4          0.414124        1.946275   1.000000   1.000000
      5          0.486936        2.253287   1.000000   1.000000
      6          0.488888        2.263756   1.000000   1.000001
      7          0.807922        2.927443   1.000000   0.846249
      8          0.910265        2.946497   1.000000   0.785822
      9          1.126296        3.024185   1.000000   0.478369
     10          1.126919        3.025113   1.000000   0.474446
     11          1.342346        3.751435   1.000000  -0.000001
     12          1.346800        3.757654   1.000000  -0.000001
     13          4.228386        5.064436  -0.000000  -0.000000
     14          6.912602        7.482494  -0.000000  -0.000000
     15         12.689717       12.955253   0.000000   0.000000
     16         17.761805       17.936896   0.000000   0.000000
 
  0.3333333E+00 -0.2775558E-16  0.2500000E+00  0.8333333E-01
      1         -0.897923        0.211122   1.000000   1.000000
      2         -0.863340        0.370309   1.000000   1.000000
      3         -0.183891        1.657526   1.000000   1.000000
      4         -0.073712        1.879129   1.000000   1.000000
      5          0.658863        2.540861   1.000000   1.001858
      6          0.771170        2.765262   1.000000   1.035173
      7          1.185086        2.850661   1.000000   1.000037
      8          1.192652        3.343433   1.000000  -0.022060
      9          1.863440        3.564513   1.000000  -0.000395
     10          2.024466        3.575293   1.000000  -0.000301
     11          2.024861        4.041969   1.000000  -0.000000
     12          2.506610        4.042603   1.000873  -0.000000
     13          7.167562        7.636004  -0.000000  -0.000000
     14          9.899944       10.383919   0.000000   0.000000
     15         13.919424       14.385335   0.000000   0.000000
     16         14.396012       14.874222   0.000000   0.000000
 
  0.5000000E+00 -0.5551115E-16  0.2500000E+00  0.4166667E-01
      1         -1.044404        0.352697   1.000000   1.000000
      2         -1.042199        0.363060   1.000000   1.000000
      3         -0.435010        1.497002   1.000000   1.000000
      4         -0.388092        1.576734   1.000000   1.000000
      5          0.951248        3.216740   1.000000  -0.023875
      6          1.018460        3.318977   1.000000  -0.027672
      7          1.107591        3.472668   1.000000  -0.003064
      8          1.116561        3.485517   1.000000  -0.002371
      9          2.523190        4.618773   1.001269  -0.000000
     10          2.523247        4.618848   1.001271  -0.000000
     11          5.279693        5.301285  -0.000000  -0.000000
     12          5.529453        5.570235  -0.000000  -0.000000
     13          9.221065       10.086141   0.000000   0.000000
     14          9.628285       10.372945   0.000000   0.000000
     15         11.072330       11.552129   0.000000   0.000000
     16         11.771761       12.052648   0.000000   0.000000
 
  0.1666667E+00  0.1666667E+00  0.2500000E+00  0.8333333E-01
      1         -0.508683        0.033260   1.000000   1.000000
      2         -0.412642        0.402586   1.000000   1.000000
      3          0.031711        1.764228   1.000000   1.000000
      4          0.105708        1.768307   1.000000   1.000000
      5          0.108691        1.833795   1.000000   1.000000
      6          0.163493        2.135947   1.000000   1.000000
      7          0.638145        2.602045   1.000000   1.006014
      8          1.121898        3.109372   1.000000   0.157687
      9          1.131823        3.488152   1.000000  -0.002246
     10          1.133992        3.496431   1.000000  -0.001892
     11          2.210542        4.011713   1.000000  -0.000000
     12          2.460816        4.090466   1.000286  -0.000000
     13          6.283983        6.860328  -0.000000  -0.000000
     14          9.036618        9.584431   0.000000   0.000000
     15         14.163596       14.399343   0.000000   0.000000
     16         18.364841       18.697738   0.000000   0.000000
 
  0.3333333E+00  0.1666667E+00  0.2500000E+00  0.1666667E+00
      1         -0.474140        0.952369   1.000000   1.000000
      2         -0.469642        0.977049   1.000000   1.000000
      3         -0.230856        1.721433   1.000000   1.000000
      4         -0.168720        1.837814   1.000000   1.000000
      5          0.827204        2.679374   1.000000   1.018614
      6          0.843876        2.726266   1.000000   1.029222
      7          0.851719        3.118765   1.000000   0.130744
      8          0.875077        3.137181   1.000000   0.084270
      9          1.382813        3.180308   1.000000   0.008386
     10          1.498008        3.405985   1.000000  -0.009820
     11          5.241432        6.168518  -0.000000  -0.000000
     12          5.802176        6.623709  -0.000000  -0.000000
     13          9.832659       10.202372   0.000000   0.000000
     14         11.364327       11.953117   0.000000   0.000000
     15         12.104485       12.691375   0.000000   0.000000
     16         12.665505       13.219056   0.000000   0.000000
 
  0.3333333E+00  0.3333333E+00  0.2500000E+00  0.2777778E-01
      1          0.183216        1.916468   1.000000   1.000000
      2          0.208604        1.940533   1.000000   1.000000
      3          0.208604        1.940533   1.000000   1.000000
      4          0.236244        1.964121   1.000000   1.000000
      5          0.450467        2.287698   1.000000   1.000001
      6          0.459967        2.324963   1.000000   1.000005
      7          0.459967        2.324963   1.000000   1.000005
      8          0.475767        2.377558   1.000000   1.000028
      9          0.964095        3.322112   1.000000  -0.026968
     10          0.964095        3.322112   1.000000  -0.026968
     11          9.786856       10.321526   0.000000   0.000000
     12          9.962840       10.526232   0.000000   0.000000
     13          9.962841       10.526232   0.000000   0.000000
     14         10.415612       11.007105   0.000000   0.000000
     15         11.792627       12.492861   0.000000   0.000000
     16         11.792627       12.492862   0.000000   0.000000
 
  0.0000000E+00  0.0000000E+00  0.5000000E+00  0.6944444E-02
      1         -2.779668       -2.481475   1.000000   1.000000
      2         -2.779668       -2.481475   1.000000   1.000000
      3         -0.011943        1.629849   1.000000   1.000000
      4         -0.011943        1.629849   1.000000   1.000000
      5          0.716773        2.567139   1.000000   1.003165
      6          0.716773        2.567139   1.000000   1.003165
      7          0.716773        2.567140   1.000000   1.003165
      8          0.716773        2.567140   1.000000   1.003165
      9          1.423481        3.848383   1.000000  -0.000000
     10          1.423481        3.848383   1.000000  -0.000000
     11          1.423481        3.848384   1.000000  -0.000000
     12          1.423481        3.848384   1.000000  -0.000000
     13          4.119034        4.578481  -0.000000  -0.000000
     14          4.119034        4.578481  -0.000000  -0.000000
     15         14.210918       14.436184   0.000000   0.000000
     16         14.210918       14.436184   0.000000   0.000000
 
  0.1666667E+00 -0.1387779E-16  0.5000000E+00  0.4166667E-01
      1         -1.842008       -1.490858   1.000000   1.000000
      2         -1.842008       -1.490858   1.000000   1.000000
      3          0.203688        1.888429   1.000000   1.000000
      4          0.203688        1.888429   1.000000   1.000000
      5          0.486663        2.259753   1.000000   1.000001
      6          0.486663        2.259753   1.000000   1.000001
      7          0.834889        2.942518   1.000000   0.799115
      8          0.834889        2.942518   1.000000   0.799115
      9          1.126579        3.024617   1.000000   0.476541
     10          1.126579        3.024617   1.000000   0.476541
     11          1.344555        3.754518   1.000000  -0.000001
     12          1.344555        3.754518   1.000000  -0.000001
     13          5.429922        6.102242  -0.000000  -0.000000
     14          5.429922        6.102242  -0.000000  -0.000000
     15         15.046773       15.278536   0.000000   0.000000
     16         15.046773       15.278536   0.000000   0.000000
 
  0.3333333E+00 -0.2775558E-16  0.5000000E+00  0.4166667E-01
      1         -0.880681        0.289698   1.000000   1.000000
      2         -0.880681        0.289698   1.000000   1.000000
      3         -0.135721        1.749043   1.000000   1.000000
      4         -0.135721        1.749043   1.000000   1.000000
      5          0.728066        2.741030   1.000000   1.032124
      6          0.728066        2.741030   1.000000   1.032124
      7          1.188872        2.988455   1.000000   0.627880
      8          1.188872        2.988455   1.000000   0.627880
      9          2.024652        3.569900   1.000000  -0.000345
     10          2.024652        3.569900   1.000000  -0.000345
     11          2.138464        4.042276   1.000000  -0.000000
     12          2.138464        4.042276   1.000000  -0.000000
     13          8.346761        8.810528  -0.000000   0.000000
     14          8.346761        8.810528  -0.000000   0.000000
     15         14.384104       14.940088   0.000000   0.000000
     16         14.384104       14.940088   0.000000   0.000000
 
  0.5000000E+00 -0.5551115E-16  0.5000000E+00  0.2083333E-01
      1         -1.043500        0.357535   1.000000   1.000000
      2         -1.043500        0.357535   1.000000   1.000000
      3         -0.412827        1.534409   1.000000   1.000000
      4         -0.412827        1.534409   1.000000   1.000000
      5          0.987884        3.277969   1.000000  -0.034777
      6          0.987884        3.277969   1.000000  -0.034777
      7          1.112069        3.479081   1.000000  -0.002699
      8          1.112069        3.479081   1.000000  -0.002699
      9          2.523223        4.618818   1.001270  -0.000000
     10          2.523223        4.618818   1.001270  -0.000000
     11          5.395128        5.415669  -0.000000  -0.000000
     12          5.395128        5.415669  -0.000000  -0.000000
     13          9.320952       10.144487   0.000000   0.000000
     14          9.320952       10.144487   0.000000   0.000000
     15         11.783681       12.146151   0.000000   0.000000
     16         11.783681       12.146151   0.000000   0.000000
 
  0.1666667E+00  0.1666667E+00  0.5000000E+00  0.4166667E-01
      1         -0.459097        0.206604   1.000000   1.000000
      2         -0.459097        0.206604   1.000000   1.000000
      3          0.083456        1.766349   1.000000   1.000000
      4          0.083456        1.766349   1.000000   1.000000
      5          0.107729        1.969226   1.000000   1.000000
      6          0.107729        1.969226   1.000000   1.000000
      7          0.888488        2.855923   1.000000   0.993965
      8          0.888488        2.855923   1.000000   0.993965
      9          1.131310        3.492284   1.000000  -0.002063
     10          1.131310        3.492284   1.000000  -0.002063
     11          2.296757        4.035121   1.000002  -0.000000
     12          2.296757        4.035121   1.000002  -0.000000
     13          7.481243        8.030926  -0.000000  -0.000000
     14          7.481243        8.030926  -0.000000  -0.000000
     15         16.524028       16.808345   0.000000   0.000000
     16         16.524028       16.808345   0.000000   0.000000
 
  0.3333333E+00  0.1666667E+00  0.5000000E+00  0.8333333E-01
      1         -0.472283        0.964261   1.000000   1.000000
      2         -0.472283        0.964261   1.000000   1.000000
      3         -0.201471        1.774548   1.000000   1.000000
      4         -0.201471        1.774548   1.000000   1.000000
      5          0.834884        2.710901   1.000000   1.025799
      6          0.834884        2.710901   1.000000   1.025799
      7          0.867313        3.127365   1.000000   0.107981
      8          0.867313        3.127365   1.000000   0.107981
      9          1.440232        3.292227   1.000000  -0.032947
     10          1.440232        3.292227   1.000000  -0.032947
     11          5.480397        6.351888  -0.000000  -0.000000
     12          5.480397        6.351888  -0.000000  -0.000000
     13         10.833461       11.236074   0.000000   0.000000
     14         10.833461       11.236074   0.000000   0.000000
     15         11.962654       12.588082   0.000000   0.000000
     16         11.962654       12.588082   0.000000   0.000000
 
  0.3333333E+00  0.3333333E+00  0.5000000E+00  0.1388889E-01
      1          0.207106        1.937794   1.000000   1.000000
      2          0.207106        1.937794   1.000000   1.000000
      3          0.208314        1.941548   1.000000   1.000000
      4          0.208314        1.941548   1.000000   1.000000
      5          0.461132        2.322279   1.000000   1.000005
      6          0.461132        2.322279   1.000000   1.000005
      7          0.464470        2.334961   1.000000   1.000007
      8          0.464470        2.334961   1.000000   1.000007
      9          0.964755        3.324645   1.000000  -0.026393
     10          0.964755        3.324645   1.000000  -0.026393
     11          9.990419       10.545241   0.000000   0.000000
     12          9.990419       10.545241   0.000000   0.000000
     13         10.069371       10.625066   0.000000   0.000000
     14         10.069371       10.625066   0.000000   0.000000
     15         11.607527       12.293265   0.000000   0.000000
     16         11.607527       12.293265   0.000000   0.000000
