    2    2    1    2
  0.1064014E+02  0.2472000E-09  0.2472000E-09  0.4021144E-09  0.5000000E-15
  1.000000000000000E-004
  CAR 
 Co fcc                                  
     18     70     16
 
  0.0000000E+00  0.0000000E+00  0.0000000E+00  0.1250000E-02
      1          1.501330        1.520325   1.000000   1.000000
      2          5.281265        6.254871   1.000000   1.000000
      3          7.827128        9.497587   1.000000   1.000000
      4          7.884836        9.567452   1.000000   1.000000
      5          7.884836        9.567453   1.000000   1.000000
      6          8.198953        9.935878   1.000000   1.000320
      7          8.198953        9.935878   1.000000   1.000320
      8          8.575513       10.331979   1.000000   0.987168
      9          8.575513       10.393937   1.000000   0.858441
     10          9.683372       10.393938   1.000000   0.858440
     11          9.683372       11.619985   1.000000  -0.000000
     12         10.373716       11.619985   0.910964  -0.000000
     13         16.949796       18.008199   0.000000   0.000000
     14         32.749530       32.489141   0.000000   0.000000
     15         35.548113       35.751415   0.000000   0.000000
     16         35.548660       35.820724   0.000000   0.000000
 
  0.1000000E+00 -0.6938894E-17  0.0000000E+00  0.7500000E-02
      1          1.856858        1.877467   1.000000   1.000000
      2          5.492953        6.496578   1.000000   1.000000
      3          7.581162        9.201373   1.000000   1.000000
      4          8.052129        9.473937   1.000000   1.000000
      5          8.061219        9.751543   1.000000   1.000001
      6          8.150216        9.763497   1.000000   1.000002
      7          8.305667        9.864981   1.000000   1.000046
      8          8.347523       10.099344   1.000000   1.009303
      9          8.473450       10.274657   1.000000   1.031296
     10          8.760789       10.299236   1.000000   1.019493
     11          9.725076       11.669614   1.000000  -0.000000
     12         11.803503       12.786731  -0.000000  -0.000000
     13         17.011385       18.035903   0.000000   0.000000
     14         30.227974       30.409117   0.000000   0.000000
     15         32.870374       33.152715   0.000000   0.000000
     16         33.089149       33.223474   0.000000   0.000000
 
  0.2000000E+00 -0.1387779E-16  0.0000000E+00  0.7500000E-02
      1          2.863229        2.899643   1.000000   1.000000
      2          5.951217        7.057762   1.000000   1.000000
      3          7.269351        8.481748   1.000000   1.000000
      4          7.347916        8.774460   1.000000   1.000000
      5          7.908384        9.550018   1.000000   1.000000
      6          8.238731       10.002635   1.000000   1.001536
      7          8.431442       10.064332   1.000000   1.005188
      8          8.505722       10.239872   1.000000   1.035367
      9          8.510862       10.260308   1.000000   1.034433
     10          8.750693       10.544426   1.000000   0.278031
     11          9.803101       11.761105   1.000007  -0.000000
     12         13.824875       14.682093  -0.000000  -0.000000
     13         17.237694       18.154452   0.000000   0.000000
     14         25.587525       26.001246   0.000000   0.000000
     15         30.053393       30.374886   0.000000   0.000000
     16         31.932965       32.085964   0.000000   0.000000
 
  0.3000000E+00  0.2775558E-16  0.0000000E+00  0.7500000E-02
      1          4.262296        4.401058   1.000000   1.000000
      2          6.076573        7.346546   1.000000   1.000000
      3          6.575096        7.768008   1.000000   1.000000
      4          7.249723        8.530873   1.000000   1.000000
      5          7.915813        9.493960   1.000000   1.000000
      6          7.987115        9.713243   1.000000   1.000000
      7          8.190524        9.780266   1.000000   1.000003
      8          9.122748       10.914527   1.000000  -0.005252
      9          9.184183       10.950438   1.000000  -0.002664
     10          9.286637       11.139689   1.000000  -0.000022
     11          9.863542       11.830781   1.000044  -0.000000
     12         16.115831       16.855770   0.000000   0.000000
     13         17.593013       18.322599   0.000000   0.000000
     14         21.422619       22.009570   0.000000   0.000000
     15         27.764378       28.029664   0.000000   0.000000
     16         28.871420       29.109245   0.000000   0.000000
 
  0.4000000E+00  0.5551115E-16  0.0000000E+00  0.7500000E-02
      1          5.346776        5.900281   1.000000   1.000000
      2          5.855189        7.132214   1.000000   1.000000
      3          6.110375        7.348578   1.000000   1.000000
      4          7.632408        8.551422   1.000000   1.000000
      5          7.802886        9.502392   1.000000   1.000000
      6          8.007687        9.554576   1.000000   1.000000
      7          8.171954        9.761935   1.000000   1.000002
      8          9.643696       11.548965   1.000000  -0.000000
      9          9.777093       11.692354   1.000003  -0.000000
     10          9.895194       11.866707   1.000109  -0.000000
     11         10.399162       11.980783   0.843227  -0.000000
     12         16.186917       16.929574   0.000000   0.000000
     13         18.575907       19.176415   0.000000   0.000000
     14         20.127904       20.705116   0.000000   0.000000
     15         25.454452       25.867424   0.000000   0.000000
     16         26.218259       26.416651   0.000000   0.000000
 
  0.5000000E+00  0.5551115E-16  0.0000000E+00  0.3750000E-02
      1          5.661511        6.608350   1.000000   1.000000
      2          5.704810        6.897461   1.000000   1.000000
      3          5.956173        7.211226   1.000000   1.000000
      4          7.735932        8.684043   1.000000   1.000000
      5          7.939342        9.425953   1.000000   1.000000
      6          7.981329        9.469200   1.000000   1.000000
      7          8.283585        9.891377   1.000000   1.000098
      8          9.841235       11.775101   1.000023  -0.000000
      9          9.904394       11.877037   1.000140  -0.000000
     10          9.989794       11.939529   1.001159  -0.000000
     11         11.877100       13.149152  -0.000000  -0.000000
     12         13.946189       14.953341  -0.000000  -0.000000
     13         20.322508       20.769960   0.000000   0.000000
     14         21.002678       21.419754   0.000000   0.000000
     15         23.394453       23.974328   0.000000   0.000000
     16         24.697200       25.291733   0.000000   0.000000
 
  0.1000000E+00  0.1000000E+00  0.0000000E+00  0.7500000E-02
      1          2.540825        2.568865   1.000000   1.000000
      2          5.847390        6.912796   1.000000   1.000000
      3          7.305020        8.738965   1.000000   1.000000
      4          7.635113        8.858053   1.000000   1.000000
      5          7.991418        9.656335   1.000000   1.000000
      6          8.190423        9.934363   1.000000   1.000308
      7          8.274610       10.001979   1.000000   1.001514
      8          8.393430       10.124871   1.000000   1.013508
      9          8.595624       10.279727   1.000000   1.029584
     10          8.682455       10.458905   1.000000   0.628891
     11          9.765869       11.717173   1.000002  -0.000000
     12         13.258787       14.149965  -0.000000  -0.000000
     13         17.161744       18.115695   0.000000   0.000000
     14         27.758296       28.053124   0.000000   0.000000
     15         28.445157       28.830513   0.000000   0.000000
     16         34.606106       34.534164   0.000000   0.000000
 
  0.2000000E+00  0.1000000E+00  0.0000000E+00  0.1500000E-01
      1          3.775574        3.847396   1.000000   1.000000
      2          6.226522        7.424245   1.000000   1.000000
      3          6.859276        8.026102   1.000000   1.000000
      4          7.025123        8.444005   1.000000   1.000000
      5          7.894166        9.493301   1.000000   1.000000
      6          7.915317        9.597220   1.000000   1.000000
      7          8.400509       10.067850   1.000000   1.005522
      8          8.627736       10.387479   1.000000   0.876324
      9          8.978646       10.771725   1.000000  -0.031409
     10          9.297273       11.096718   1.000000  -0.000077
     11          9.807139       11.765048   1.000008  -0.000000
     12         15.297475       16.088093  -0.000000   0.000000
     13         17.544459       18.351936   0.000000   0.000000
     14         23.508487       23.988184   0.000000   0.000000
     15         26.149359       26.523731   0.000000   0.000000
     16         30.899501       31.017985   0.000000   0.000000
 
  0.3000000E+00  0.1000000E+00  0.0000000E+00  0.1500000E-01
      1          5.114777        5.413162   1.000000   1.000000
      2          6.105764        7.404531   1.000000   1.000000
      3          6.307723        7.536188   1.000000   1.000000
      4          7.177342        8.343751   1.000000   1.000000
      5          7.737619        9.378067   1.000000   1.000000
      6          8.060547        9.641387   1.000000   1.000000
      7          8.143322        9.760515   1.000000   1.000002
      8          9.194013       10.997717   1.000000  -0.000968
      9          9.552484       11.423157   1.000000  -0.000000
     10          9.834974       11.796915   1.000019  -0.000000
     11         10.183242       11.913762   1.026176  -0.000000
     12         17.610406       18.253109   0.000000   0.000000
     13         17.651092       18.325732   0.000000   0.000000
     14         20.236775       20.862900   0.000000   0.000000
     15         24.554554       24.901081   0.000000   0.000000
     16         27.272486       27.582178   0.000000   0.000000
 
  0.4000000E+00  0.1000000E+00  0.0000000E+00  0.1500000E-01
      1          5.748617        6.581058   1.000000   1.000000
      2          5.897598        7.132098   1.000000   1.000000
      3          6.029443        7.294535   1.000000   1.000000
      4          7.634442        8.464672   1.000000   1.000000
      5          7.682304        9.328466   1.000000   1.000000
      6          7.939477        9.493645   1.000000   1.000000
      7          8.278579        9.891738   1.000000   1.000099
      8          9.724922       11.617997   1.000000  -0.000000
      9          9.846527       11.773016   1.000026  -0.000000
     10          9.852750       11.809846   1.000032  -0.000000
     11         11.672597       13.031967  -0.000000  -0.000000
     12         15.021158       15.907166  -0.000000  -0.000000
     13         20.053126       20.575635   0.000000   0.000000
     14         20.864021       21.333723   0.000000   0.000000
     15         23.519958       23.857243   0.000000   0.000000
     16         24.236658       24.735339   0.000000   0.000000
 
  0.2000000E+00  0.2000000E+00  0.0000000E+00  0.7500000E-02
      1          5.048154        5.239670   1.000000   1.000000
      2          6.435301        7.659641   1.000000   1.000000
      3          6.507495        7.763338   1.000000   1.000000
      4          6.675178        8.011681   1.000000   1.000000
      5          7.637079        9.261142   1.000000   1.000000
      6          8.025087        9.604209   1.000000   1.000000
      7          8.240335        9.875285   1.000000   1.000062
      8          8.831973       10.626340   1.000000   0.046257
      9          9.555725       11.416915   1.000000  -0.000000
     10          9.776199       11.729237   1.000003  -0.000000
     11         10.220097       11.952451   1.033479  -0.000000
     12         17.343637       18.051245   0.000000   0.000000
     13         18.190281       18.838772   0.000000   0.000000
     14         21.600685       22.115650   0.000000   0.000000
     15         22.215518       22.698703   0.000000   0.000000
     16         29.295965       29.384670   0.000000   0.000000
 
  0.3000000E+00  0.2000000E+00  0.0000000E+00  0.1500000E-01
      1          6.018092        6.615032   1.000000   1.000000
      2          6.167341        7.451619   1.000000   1.000000
      3          6.302991        7.571230   1.000000   1.000000
      4          6.931611        8.025519   1.000000   1.000000
      5          7.543684        9.130361   1.000000   1.000000
      6          7.975920        9.555019   1.000000   1.000000
      7          8.278170        9.891920   1.000000   1.000099
      8          9.231751       11.066724   1.000000  -0.000175
      9          9.749525       11.698514   1.000001  -0.000000
     10          9.851078       11.763622   1.000030  -0.000000
     11         11.632343       13.087678  -0.000000  -0.000000
     12         17.226761       17.895081   0.000000   0.000000
     13         19.745645       20.347881   0.000000   0.000000
     14         19.952428       20.489711   0.000000   0.000000
     15         21.303346       21.768398   0.000000   0.000000
     16         26.183501       26.554328   0.000000   0.000000
 
  0.4000000E+00  0.2000000E+00  0.0000000E+00  0.7500000E-02
      1          6.077327        7.181201   1.000000   1.000000
      2          6.185088        7.387260   1.000000   1.000000
      3          6.214075        7.415021   1.000000   1.000000
      4          7.239127        8.142790   1.000000   1.000000
      5          7.579629        9.181219   1.000000   1.000000
      6          7.802529        9.327300   1.000000   1.000000
      7          8.404278       10.045068   1.000000   1.003638
      8          9.588263       11.463410   1.000000  -0.000000
      9          9.739434       11.686765   1.000001  -0.000000
     10          9.791023       11.702686   1.000005  -0.000000
     11         13.340223       14.365449  -0.000000  -0.000000
     12         14.773063       15.758373  -0.000000  -0.000000
     13         19.971865       20.451762   0.000000   0.000000
     14         21.676880       22.153058   0.000000   0.000000
     15         21.997825       22.406057   0.000000   0.000000
     16         23.924230       24.452967   0.000000   0.000000
 
  0.3000000E+00  0.3000000E+00  0.0000000E+00  0.7500000E-02
      1          6.129073        7.441822   1.000000   1.000000
      2          6.418322        7.467555   1.000000   1.000000
      3          6.576809        7.753480   1.000000   1.000000
      4          6.810052        7.796041   1.000000   1.000000
      5          7.532223        9.078084   1.000000   1.000000
      6          7.729139        9.267027   1.000000   1.000000
      7          8.499993       10.147347   1.000000   1.018023
      8          9.416045       11.281799   1.000000  -0.000000
      9          9.686074       11.626039   1.000000  -0.000000
     10          9.744689       11.648627   1.000001  -0.000000
     11         13.764585       14.805802  -0.000000  -0.000000
     12         16.791381       17.503753   0.000000   0.000000
     13         16.826185       17.519166   0.000000   0.000000
     14         22.224930       22.742497   0.000000   0.000000
     15         22.484647       22.906148   0.000000   0.000000
     16         25.106068       25.561582   0.000000   0.000000
 
  0.0000000E+00  0.0000000E+00  0.1250000E+00  0.2500000E-02
      1          1.660021        1.679633   1.000000   1.000000
      2          5.250174        6.139620   1.000000   1.000000
      3          7.786552        9.445007   1.000000   1.000000
      4          7.844726        9.526012   1.000000   1.000000
      5          7.844726        9.526013   1.000000   1.000000
      6          8.156589        9.887455   1.000000   1.000088
      7          8.156589        9.887455   1.000000   1.000088
      8          8.671806        9.940152   1.000000   1.000356
      9          8.671806       10.498899   1.000000   0.461417
     10          9.674380       10.498899   1.000000   0.461415
     11          9.674381       11.611683   1.000000  -0.000000
     12          9.763799       11.611684   1.000002  -0.000000
     13         17.870948       18.795401   0.000000   0.000000
     14         32.676616       32.388568   0.000000   0.000000
     15         34.758372       34.776215   0.000000   0.000000
     16         35.559983       35.397152   0.000000   0.000000
 
  0.1000000E+00 -0.6938894E-17  0.1250000E+00  0.1500000E-01
      1          2.011879        2.033591   1.000000   1.000000
      2          5.473990        6.393463   1.000000   1.000000
      3          7.585257        9.205340   1.000000   1.000000
      4          7.948133        9.211867   1.000000   1.000000
      5          7.981446        9.638430   1.000000   1.000000
      6          7.993507        9.691877   1.000000   1.000000
      7          8.297271        9.890375   1.000000   1.000095
      8          8.434954       10.040997   1.000000   1.003365
      9          8.599471       10.411580   1.000000   0.804486
     10          8.740875       10.435636   1.000000   0.720024
     11          9.710071       11.653989   1.000000  -0.000000
     12         11.242300       12.490973  -0.000001  -0.000000
     13         18.005204       18.890517   0.000000   0.000000
     14         30.323939       30.485729   0.000000   0.000000
     15         33.027878       33.064950   0.000000   0.000000
     16         33.029716       33.378439   0.000000   0.000000
 
  0.2000000E+00 -0.1387779E-16  0.1250000E+00  0.1500000E-01
      1          3.002650        3.043641   1.000000   1.000000
      2          5.967204        6.995492   1.000000   1.000000
      3          7.211002        8.342591   1.000000   1.000000
      4          7.303865        8.804022   1.000000   1.000000
      5          7.838884        9.495014   1.000000   1.000000
      6          8.199661        9.892083   1.000000   1.000100
      7          8.295743        9.946720   1.000000   1.000420
      8          8.589372       10.352066   1.000000   0.955803
      9          8.704848       10.463185   1.000000   0.611398
     10          8.732981       10.532431   1.000000   0.323961
     11          9.776153       11.730861   1.000003  -0.000000
     12         12.932008       14.002718  -0.000000  -0.000000
     13         18.472360       19.243157   0.000000   0.000000
     14         25.722881       26.132206   0.000000   0.000000
     15         30.244655       30.568897   0.000000   0.000000
     16         31.208325       31.370630   0.000000   0.000000
 
  0.3000000E+00  0.2775558E-16  0.1250000E+00  0.1500000E-01
      1          4.349815        4.512038   1.000000   1.000000
      2          6.109637        7.321620   1.000000   1.000000
      3          6.548119        7.730573   1.000000   1.000000
      4          7.226985        8.559938   1.000000   1.000000
      5          7.824500        9.381655   1.000000   1.000000
      6          8.031532        9.760693   1.000000   1.000002
      7          8.330824        9.848350   1.000000   1.000028
      8          9.141884       10.942708   1.000000  -0.003104
      9          9.178351       10.968762   1.000000  -0.001828
     10          9.241065       11.093261   1.000000  -0.000085
     11          9.829768       11.790820   1.000016  -0.000000
     12         14.650095       15.544537  -0.000000  -0.000000
     13         19.266744       19.887749   0.000000   0.000000
     14         21.595925       22.171248   0.000000   0.000000
     15         27.646657       27.993158   0.000000   0.000000
     16         27.983782       28.257058   0.000000   0.000000
 
  0.4000000E+00  0.5551115E-16  0.1250000E+00  0.1500000E-01
      1          5.291908        5.920314   1.000000   1.000000
      2          5.848103        7.088810   1.000000   1.000000
      3          6.294053        7.473158   1.000000   1.000000
      4          7.221684        8.403798   1.000000   1.000000
      5          7.866062        9.571461   1.000000   1.000000
      6          8.166565        9.703036   1.000000   1.000000
      7          8.537799        9.858396   1.000000   1.000038
      8          9.643421       11.553957   1.000000  -0.000000
      9          9.693109       11.601470   1.000000  -0.000000
     10          9.889731       11.847833   1.000093  -0.000000
     11         10.314221       11.901919   1.007351  -0.000000
     12         15.473966       16.177281  -0.000000   0.000000
     13         18.367984       19.142835   0.000000   0.000000
     14         21.084833       21.536809   0.000000   0.000000
     15         24.534711       25.056771   0.000000   0.000000
     16         26.458406       26.669911   0.000000   0.000000
 
  0.5000000E+00  0.5551115E-16  0.1250000E+00  0.7500000E-02
      1          5.481389        6.476341   1.000000   1.000000
      2          5.693501        6.912161   1.000000   1.000000
      3          6.281999        7.471617   1.000000   1.000000
      4          7.247330        8.327029   1.000000   1.000000
      5          7.803958        9.500505   1.000000   1.000000
      6          8.287817        9.863894   1.000000   1.000044
      7          8.779835        9.977386   1.000000   1.000874
      8          9.766339       11.708354   1.000002  -0.000000
      9          9.884150       11.831214   1.000080  -0.000000
     10          9.985378       11.934594   1.001049  -0.000000
     11         11.759918       12.967700  -0.000000  -0.000000
     12         13.847748       14.819245  -0.000000  -0.000000
     13         19.760453       20.312741   0.000000   0.000000
     14         20.136313       20.712292   0.000000   0.000000
     15         24.554565       24.997112   0.000000   0.000000
     16         25.583063       26.091039   0.000000   0.000000
 
  0.1000000E+00  0.1000000E+00  0.1250000E+00  0.1500000E-01
      1          2.686578        2.717506   1.000000   1.000000
      2          5.853506        6.836842   1.000000   1.000000
      3          7.325237        8.565887   1.000000   1.000000
      4          7.454541        8.882489   1.000000   1.000000
      5          7.974441        9.663926   1.000000   1.000000
      6          8.060595        9.702419   1.000000   1.000000
      7          8.288682        9.983053   1.000000   1.000995
      8          8.445877       10.199356   1.000000   1.029726
      9          8.699643       10.450021   1.000000   0.664567
     10          8.709995       10.490880   1.000000   0.495306
     11          9.745951       11.694176   1.000001  -0.000000
     12         12.476331       13.590186  -0.000000  -0.000000
     13         18.312066       19.120662   0.000000   0.000000
     14         27.877119       28.164522   0.000000   0.000000
     15         28.593223       28.976266   0.000000   0.000000
     16         33.503607       33.526857   0.000000   0.000000
 
  0.2000000E+00  0.1000000E+00  0.1250000E+00  0.3000000E-01
      1          3.891915        3.975473   1.000000   1.000000
      2          6.271149        7.404430   1.000000   1.000000
      3          6.762856        7.926721   1.000000   1.000000
      4          7.064458        8.483349   1.000000   1.000000
      5          7.773311        9.402433   1.000000   1.000000
      6          8.019512        9.645510   1.000000   1.000000
      7          8.318680        9.991516   1.000000   1.001204
      8          8.682777       10.452346   1.000000   0.655322
      9          9.056266       10.853284   1.000000  -0.013765
     10          9.245890       11.055763   1.000000  -0.000234
     11          9.797713       11.743836   1.000006  -0.000000
     12         14.086910       15.059256  -0.000000  -0.000000
     13         19.038544       19.712200   0.000000   0.000000
     14         23.654587       24.131577   0.000000   0.000000
     15         26.306277       26.683092   0.000000   0.000000
     16         29.820747       30.045498   0.000000   0.000000
 
  0.3000000E+00  0.1000000E+00  0.1250000E+00  0.3000000E-01
      1          5.138294        5.487354   1.000000   1.000000
      2          6.137235        7.369658   1.000000   1.000000
      3          6.346547        7.567263   1.000000   1.000000
      4          7.103202        8.366832   1.000000   1.000000
      5          7.772786        9.345189   1.000000   1.000000
      6          8.091810        9.718187   1.000000   1.000000
      7          8.235170        9.756805   1.000000   1.000001
      8          9.179393       10.991744   1.000000  -0.001108
      9          9.596064       11.469789   1.000000  -0.000000
     10          9.703452       11.608367   1.000000  -0.000000
     11         10.218355       11.993761   1.033219  -0.000000
     12         15.679985       16.437543  -0.000000   0.000000
     13         19.221027       19.891432   0.000000   0.000000
     14         20.900957       21.432345   0.000000   0.000000
     15         24.694029       25.060027   0.000000   0.000000
     16         26.211659       26.609061   0.000000   0.000000
 
  0.4000000E+00  0.1000000E+00  0.1250000E+00  0.3000000E-01
      1          5.591700        6.514747   1.000000   1.000000
      2          5.886111        7.116958   1.000000   1.000000
      3          6.337838        7.506968   1.000000   1.000000
      4          7.174418        8.273596   1.000000   1.000000
      5          7.715830        9.359980   1.000000   1.000000
      6          8.311415        9.726417   1.000000   1.000000
      7          8.416178        9.924249   1.000000   1.000237
      8          9.676940       11.580776   1.000000  -0.000000
      9          9.771305       11.697771   1.000002  -0.000000
     10          9.879201       11.804777   1.000069  -0.000000
     11         11.655739       12.981343  -0.000000  -0.000000
     12         14.858671       15.696534  -0.000000  -0.000000
     13         19.085951       19.759375   0.000000   0.000000
     14         21.205605       21.663288   0.000000   0.000000
     15         23.631856       24.022370   0.000000   0.000000
     16         24.505496       24.947238   0.000000   0.000000
 
  0.2000000E+00  0.2000000E+00  0.1250000E+00  0.1500000E-01
      1          5.109793        5.333061   1.000000   1.000000
      2          6.351894        7.572640   1.000000   1.000000
      3          6.622585        7.835644   1.000000   1.000000
      4          6.703765        8.052179   1.000000   1.000000
      5          7.679207        9.258086   1.000000   1.000000
      6          8.007954        9.595618   1.000000   1.000000
      7          8.174354        9.806260   1.000000   1.000007
      8          8.865008       10.661660   1.000000  -0.003732
      9          9.613971       11.483593   1.000000  -0.000000
     10          9.634378       11.542517   1.000000  -0.000000
     11         10.289054       12.051773   1.025495  -0.000000
     12         15.644927       16.456893  -0.000000   0.000000
     13         20.075766       20.651334   0.000000   0.000000
     14         21.752991       22.268713   0.000000   0.000000
     15         22.410682       22.890521   0.000000   0.000000
     16         28.204545       28.427780   0.000000   0.000000
 
  0.3000000E+00  0.2000000E+00  0.1250000E+00  0.3000000E-01
      1          5.916832        6.636068   1.000000   1.000000
      2          6.285333        7.438850   1.000000   1.000000
      3          6.359205        7.627738   1.000000   1.000000
      4          6.891931        8.084491   1.000000   1.000000
      5          7.625130        9.156859   1.000000   1.000000
      6          7.949680        9.481022   1.000000   1.000000
      7          8.298443        9.912701   1.000000   1.000175
      8          9.240514       11.078624   1.000000  -0.000127
      9          9.626675       11.551530   1.000000  -0.000000
     10          9.890686       11.811873   1.000096  -0.000000
     11         11.696811       13.139842  -0.000000  -0.000000
     12         16.720702       17.364695   0.000000   0.000000
     13         18.890391       19.590121   0.000000   0.000000
     14         20.767725       21.285415   0.000000   0.000000
     15         22.111456       22.543224   0.000000   0.000000
     16         25.236361       25.690141   0.000000   0.000000
 
  0.4000000E+00  0.2000000E+00  0.1250000E+00  0.1500000E-01
      1          5.922977        7.048805   1.000000   1.000000
      2          6.233557        7.455746   1.000000   1.000000
      3          6.473572        7.640002   1.000000   1.000000
      4          7.025426        8.051466   1.000000   1.000000
      5          7.550526        9.135123   1.000000   1.000000
      6          7.967069        9.385245   1.000000   1.000000
      7          8.439452       10.078646   1.000000   1.006652
      8          9.592027       11.469268   1.000000  -0.000000
      9          9.605374       11.527668   1.000000  -0.000000
     10          9.823328       11.741356   1.000013  -0.000000
     11         13.433896       14.431803  -0.000000  -0.000000
     12         14.768437       15.729244  -0.000000  -0.000000
     13         19.889242       20.407487   0.000000   0.000000
     14         20.956158       21.493459   0.000000   0.000000
     15         21.243706       21.757695   0.000000   0.000000
     16         25.137898       25.574900   0.000000   0.000000
 
  0.3000000E+00  0.3000000E+00  0.1250000E+00  0.1500000E-01
      1          6.156469        7.470158   1.000000   1.000000
      2          6.437218        7.475145   1.000000   1.000000
      3          6.628429        7.810058   1.000000   1.000000
      4          6.776512        7.839235   1.000000   1.000000
      5          7.584221        9.078186   1.000000   1.000000
      6          7.676395        9.184928   1.000000   1.000000