       N       E                     dE             d eps       ncg     rms          rms(c)
DAV:   1     0.701959716252E+02    0.70196E+02   -0.77046E+03  4648   0.136E+03
DAV:   2    -0.136919044162E+02   -0.83888E+02   -0.77506E+02  4504   0.228E+02
DAV:   3    -0.155796788748E+02   -0.18878E+01   -0.18634E+01  5520   0.474E+01
DAV:   4    -0.156115436993E+02   -0.31865E-01   -0.31859E-01  6552   0.462E+00
DAV:   5    -0.156117040891E+02   -0.16039E-03   -0.16039E-03  5576   0.339E-01    0.165E+01
DAV:   6    -0.144126608808E+02    0.11990E+01   -0.10584E+01  4824   0.673E+01    0.630E+00
DAV:   7    -0.141019393280E+02    0.31072E+00   -0.14057E+00  5144   0.234E+01    0.385E+00
DAV:   8    -0.140791497499E+02    0.22790E-01   -0.19668E-02  6384   0.187E+00    0.178E+00
DAV:   9    -0.140643950670E+02    0.14755E-01   -0.56918E-03  6648   0.135E+00    0.491E-01
DAV:  10    -0.140637416090E+02    0.65346E-03   -0.83321E-04  6240   0.399E-01    0.854E-02
DAV:  11    -0.140637637187E+02   -0.22110E-04   -0.88522E-05  6608   0.153E-01    0.250E-02
DAV:  12    -0.140637609882E+02    0.27305E-05   -0.65732E-06  4840   0.265E-02    0.145E-02
DAV:  13    -0.140637606289E+02    0.35929E-06   -0.12099E-06  3104   0.166E-02
   1 F= -.14063761E+02 E0= -.14063858E+02  d E =0.293580E-03  mag=     3.3215
