<?xml version="1.0" encoding="ISO-8859-1"?>
<modeling>
 <generator>
  <i name="program" type="string">vasp </i>
  <i name="version" type="string">6.3.2  </i>
  <i name="subversion" type="string">27Jun22 (build Aug 12 2022 00:53:59) complex                          parallel </i>
  <i name="platform" type="string">tv2STD </i>
  <i name="date" type="string">2024 12 02 </i>
  <i name="time" type="string">16:49:02 </i>
 </generator>
 <incar>
  <i type="string" name="SYSTEM">Co fcc</i>
  <i type="int" name="ISTART">     0</i>
  <i type="string" name="PREC">Accurate      normal | accurate</i>
  <i type="string" name="ALGO">Normal     Normal, Fast, Very_Fast</i>
  <i type="logical" name="ADDGRID"> F  </i>
  <i type="int" name="ISPIN">     2</i>
  <i type="int" name="ICHARG">     2</i>
  <i type="int" name="INIWAV">     1</i>
  <i type="int" name="NELM">   100</i>
  <i type="int" name="IBRION">    -1</i>
  <i name="EDIFF">      0.00000100</i>
  <i name="EDIFFG">     -0.02000000</i>
  <i type="int" name="NSW">     0</i>
  <i type="int" name="ISIF">     2</i>
  <i type="int" name="ISYM">     1</i>
  <i name="ENCUT">    450.00000000</i>
  <v name="MAGMOM">      3.00000000      3.00000000</v>
  <i type="logical" name="LREAL"> F  </i>
  <i type="int" name="ISMEAR">     1</i>
  <i name="SIGMA">      0.20000000</i>
  <i type="int" name="NWRITE">     2</i>
  <i type="logical" name="LWAVE"> F  </i>
  <i type="logical" name="LCHARG"> F  </i>
 </incar>
 <primitive_cell>
  <structure name="primitive_cell" >
   <crystal>
    <varray name="basis" >
     <v>       1.23599995      -2.14081471       0.00000000 </v>
     <v>       1.23599995       2.14081471       0.00000000 </v>
     <v>       0.00000000       0.00000000       4.02114408 </v>
    </varray>
    <i name="volume">     21.28027152 </i>
    <varray name="rec_basis" >
     <v>       0.40453076      -0.23355594       0.00000000 </v>
     <v>       0.40453076       0.23355594       0.00000000 </v>
     <v>       0.00000000       0.00000000       0.24868544 </v>
    </varray>
   </crystal>
   <varray name="positions" >
    <v>       0.33333333       0.66666667       0.25000000 </v>
    <v>       0.66666667       0.33333333       0.75000000 </v>
   </varray>
  </structure>
  <varray name="primitive_index" >
   <v type="int" >        1 </v>
   <v type="int" >        2 </v>
  </varray>
 </primitive_cell>
 <kpoints>
  <generation param="Gamma">
   <v type="int" name="divisions">      10       10        8 </v>
   <v name="usershift">      0.00000000       0.00000000       0.00000000 </v>
   <v name="genvec1">      0.10000000       0.00000000       0.00000000 </v>
   <v name="genvec2">      0.00000000       0.10000000       0.00000000 </v>
   <v name="genvec3">      0.00000000       0.00000000       0.12500000 </v>
   <v name="shift">      0.00000000       0.00000000       0.00000000 </v>
  </generation>
  <varray name="kpointlist" >
   <v>       0.00000000       0.00000000       0.00000000 </v>
   <v>       0.10000000      -0.00000000       0.00000000 </v>
   <v>       0.20000000      -0.00000000       0.00000000 </v>
   <v>       0.30000000       0.00000000       0.00000000 </v>
   <v>       0.40000000       0.00000000       0.00000000 </v>
   <v>       0.50000000       0.00000000       0.00000000 </v>
   <v>       0.10000000       0.10000000       0.00000000 </v>
   <v>       0.20000000       0.10000000       0.00000000 </v>
   <v>       0.30000000       0.10000000       0.00000000 </v>
   <v>       0.40000000       0.10000000       0.00000000 </v>
   <v>       0.20000000       0.20000000       0.00000000 </v>
   <v>       0.30000000       0.20000000       0.00000000 </v>
   <v>       0.40000000       0.20000000       0.00000000 </v>
   <v>       0.30000000       0.30000000       0.00000000 </v>
   <v>       0.00000000       0.00000000       0.12500000 </v>
   <v>       0.10000000      -0.00000000       0.12500000 </v>
   <v>       0.20000000      -0.00000000       0.12500000 </v>
   <v>       0.30000000       0.00000000       0.12500000 </v>
   <v>       0.40000000       0.00000000       0.12500000 </v>
   <v>       0.50000000       0.00000000       0.12500000 </v>
   <v>       0.10000000       0.10000000       0.12500000 </v>
   <v>       0.20000000       0.10000000       0.12500000 </v>
   <v>       0.30000000       0.10000000       0.12500000 </v>
   <v>       0.40000000       0.10000000       0.12500000 </v>
   <v>       0.20000000       0.20000000       0.12500000 </v>
   <v>       0.30000000       0.20000000       0.12500000 </v>
   <v>       0.40000000       0.20000000       0.12500000 </v>
   <v>       0.30000000       0.30000000       0.12500000 </v>
   <v>       0.00000000       0.00000000       0.25000000 </v>
   <v>       0.10000000      -0.00000000       0.25000000 </v>
   <v>       0.20000000      -0.00000000       0.25000000 </v>
   <v>       0.30000000       0.00000000       0.25000000 </v>
   <v>       0.40000000       0.00000000       0.25000000 </v>
   <v>       0.50000000       0.00000000       0.25000000 </v>
   <v>       0.10000000       0.10000000       0.25000000 </v>
   <v>       0.20000000       0.10000000       0.25000000 </v>
   <v>       0.30000000       0.10000000       0.25000000 </v>
   <v>       0.40000000       0.10000000       0.25000000 </v>
   <v>       0.20000000       0.20000000       0.25000000 </v>
   <v>       0.30000000       0.20000000       0.25000000 </v>
   <v>       0.40000000       0.20000000       0.25000000 </v>
   <v>       0.30000000       0.30000000       0.25000000 </v>
   <v>       0.00000000       0.00000000       0.37500000 </v>
   <v>       0.10000000      -0.00000000       0.37500000 </v>
   <v>       0.20000000      -0.00000000       0.37500000 </v>
   <v>       0.30000000       0.00000000       0.37500000 </v>
   <v>       0.40000000       0.00000000       0.37500000 </v>
   <v>       0.50000000       0.00000000       0.37500000 </v>
   <v>       0.10000000       0.10000000       0.37500000 </v>
   <v>       0.20000000       0.10000000       0.37500000 </v>
   <v>       0.30000000       0.10000000       0.37500000 </v>
   <v>       0.40000000       0.10000000       0.37500000 </v>
   <v>       0.20000000       0.20000000       0.37500000 </v>
   <v>       0.30000000       0.20000000       0.37500000 </v>
   <v>       0.40000000       0.20000000       0.37500000 </v>
   <v>       0.30000000       0.30000000       0.37500000 </v>
   <v>       0.00000000       0.00000000       0.50000000 </v>
   <v>       0.10000000      -0.00000000       0.50000000 </v>
   <v>       0.20000000      -0.00000000       0.50000000 </v>
   <v>       0.30000000       0.00000000       0.50000000 </v>
   <v>       0.40000000       0.00000000       0.50000000 </v>
   <v>       0.50000000       0.00000000       0.50000000 </v>
   <v>       0.10000000       0.10000000       0.50000000 </v>
   <v>       0.20000000       0.10000000       0.50000000 </v>
   <v>       0.30000000       0.10000000       0.50000000 </v>
   <v>       0.40000000       0.10000000       0.50000000 </v>
   <v>       0.20000000       0.20000000       0.50000000 </v>
   <v>       0.30000000       0.20000000       0.50000000 </v>
   <v>       0.40000000       0.20000000       0.50000000 </v>
   <v>       0.30000000       0.30000000       0.50000000 </v>
  </varray>
  <varray name="weights" >
   <v>       0.00125000 </v>
   <v>       0.00750000 </v>
   <v>       0.00750000 </v>
   <v>       0.00750000 </v>
   <v>       0.00750000 </v>
   <v>       0.00375000 </v>
   <v>       0.00750000 </v>
   <v>       0.01500000 </v>
   <v>       0.01500000 </v>
   <v>       0.01500000 </v>
   <v>       0.00750000 </v>
   <v>       0.01500000 </v>
   <v>       0.00750000 </v>
   <v>       0.00750000 </v>
   <v>       0.00250000 </v>
   <v>       0.01500000 </v>
   <v>       0.01500000 </v>
   <v>       0.01500000 </v>
   <v>       0.01500000 </v>
   <v>       0.00750000 </v>
   <v>       0.01500000 </v>
   <v>       0.03000000 </v>
   <v>       0.03000000 </v>
   <v>       0.03000000 </v>
   <v>       0.01500000 </v>
   <v>       0.03000000 </v>
   <v>       0.01500000 </v>
   <v>       0.01500000 </v>
   <v>       0.00250000 </v>
   <v>       0.01500000 </v>
   <v>       0.01500000 </v>
   <v>       0.01500000 </v>
   <v>       0.01500000 </v>
   <v>       0.00750000 </v>
   <v>       0.01500000 </v>
   <v>       0.03000000 </v>
   <v>       0.03000000 </v>
   <v>       0.03000000 </v>
   <v>       0.01500000 </v>
   <v>       0.03000000 </v>
   <v>       0.01500000 </v>
   <v>       0.01500000 </v>
   <v>       0.00250000 </v>
   <v>       0.01500000 </v>
   <v>       0.01500000 </v>
   <v>       0.01500000 </v>
   <v>       0.01500000 </v>
   <v>       0.00750000 </v>
   <v>       0.01500000 </v>
   <v>       0.03000000 </v>
   <v>       0.03000000 </v>
   <v>       0.03000000 </v>
   <v>       0.01500000 </v>
   <v>       0.03000000 </v>
   <v>       0.01500000 </v>
   <v>       0.01500000 </v>
   <v>       0.00125000 </v>
   <v>       0.00750000 </v>
   <v>       0.00750000 </v>
   <v>       0.00750000 </v>
   <v>       0.00750000 </v>
   <v>       0.00375000 </v>
   <v>       0.00750000 </v>
   <v>       0.01500000 </v>
   <v>       0.01500000 </v>
   <v>       0.01500000 </v>
   <v>       0.00750000 </v>
   <v>       0.01500000 </v>
   <v>       0.00750000 </v>
   <v>       0.00750000 </v>
  </varray>
 </kpoints>
 <parameters>
  <separator name="general" >
   <i type="string" name="SYSTEM">Co fcc</i>
   <i type="logical" name="LCOMPAT"> F  </i>
  </separator>
  <separator name="electronic" >
   <i type="string" name="PREC">accura</i>
   <i name="ENMAX">    450.00000000</i>
   <i name="ENAUG">    477.81800000</i>
   <i name="EDIFF">      0.00000100</i>
   <i type="int" name="IALGO">    38</i>
   <i type="int" name="IWAVPR">    10</i>
   <i type="int" name="NBANDS">    16</i>
   <i type="int" name="NBANDSLOW">    -1</i>
   <i type="int" name="NBANDSHIGH">    -1</i>
   <i name="NELECT">     18.00000000</i>
   <i type="int" name="TURBO">     0</i>
   <i type="int" name="IRESTART">     0</i>
   <i type="int" name="NREBOOT">     0</i>
   <i type="int" name="NMIN">     0</i>
   <i name="EREF">      0.00000000</i>
   <separator name="electronic smearing" >
    <i type="int" name="ISMEAR">     1</i>
    <i name="SIGMA">      0.20000000</i>
    <i name="KSPACING">      0.50000000</i>
    <i type="logical" name="KGAMMA"> T  </i>
    <i type="logical" name="KBLOWUP"> T  </i>
   </separator>
   <separator name="electronic projectors" >
    <i type="logical" name="LREAL"> F  </i>
    <v name="ROPT">      0.00000000</v>
    <i type="int" name="LMAXPAW">  -100</i>
    <i type="int" name="LMAXMIX">     2</i>
    <i type="logical" name="NLSPLINE"> F  </i>
   </separator>
   <separator name="electronic startup" >
    <i type="int" name="ISTART">     0</i>
    <i type="int" name="ICHARG">     2</i>
    <i type="int" name="INIWAV">     1</i>
   </separator>
   <separator name="electronic spin" >
    <i type="int" name="ISPIN">     2</i>
    <i type="logical" name="LNONCOLLINEAR"> F  </i>
    <v name="MAGMOM">      3.00000000      3.00000000</v>
    <i name="NUPDOWN">     -1.00000000</i>
    <i type="logical" name="LSORBIT"> F  </i>
    <v name="SAXIS">      0.00000000      0.00000000      1.00000000</v>
    <i type="logical" name="LSPIRAL"> F  </i>
    <v name="QSPIRAL">      0.00000000      0.00000000      0.00000000</v>
    <i type="logical" name="LZEROZ"> F  </i>
   </separator>
   <separator name="electronic exchange-correlation" >
    <i type="logical" name="LASPH"> F  </i>
    <i type="logical" name="LMETAGGA"> F  </i>
   </separator>
   <separator name="electronic convergence" >
    <i type="int" name="NELM">   100</i>
    <i type="int" name="NELMDL">    -5</i>
    <i type="int" name="NELMIN">     2</i>
    <i name="ENINI">    450.00000000</i>
    <separator name="electronic convergence detail" >
     <i type="logical" name="LDIAG"> T  </i>
     <i type="logical" name="LSUBROT"> F  </i>
     <i name="WEIMIN">      0.00000000</i>
     <i name="EBREAK">      0.00000002</i>
     <i name="DEPER">      0.30000000</i>
     <i type="int" name="NRMM">     4</i>
     <i name="TIME">      0.40000000</i>
    </separator>
   </separator>
   <separator name="electronic mixer" >
    <i name="AMIX">      0.40000000</i>
    <i name="BMIX">      1.00000000</i>
    <i name="AMIN">      0.10000000</i>
    <i name="AMIX_MAG">      1.60000000</i>
    <i name="BMIX_MAG">      1.00000000</i>
    <separator name="electronic mixer details" >
     <i type="int" name="IMIX">     4</i>
     <i type="logical" name="MIXFIRST"> F  </i>
     <i type="int" name="MAXMIX">   -45</i>
     <i name="WC">    100.00000000</i>
     <i type="int" name="INIMIX">     1</i>
     <i type="int" name="MIXPRE">     1</i>
     <i type="int" name="MREMOVE">     5</i>
    </separator>
   </separator>
   <separator name="electronic dipolcorrection" >
    <i type="logical" name="LDIPOL"> F  </i>
    <i type="logical" name="LMONO"> F  </i>
    <i type="int" name="IDIPOL">     0</i>
    <i name="EPSILON">      1.00000000</i>
    <v name="DIPOL">   -100.00000000   -100.00000000   -100.00000000</v>
    <i name="EFIELD">      0.00000000</i>
   </separator>
  </separator>
  <separator name="grids" >
   <i type="int" name="NGX">    18</i>
   <i type="int" name="NGY">    18</i>
   <i type="int" name="NGZ">    28</i>
   <i type="int" name="NGXF">    36</i>
   <i type="int" name="NGYF">    36</i>
   <i type="int" name="NGZF">    56</i>
   <i type="logical" name="ADDGRID"> F  </i>
  </separator>
  <separator name="ionic" >
   <i type="int" name="NSW">     0</i>
   <i type="int" name="IBRION">    -1</i>
   <i type="int" name="MDALGO">     0</i>
   <i type="int" name="ISIF">     2</i>
   <i name="PSTRESS">      0.00000000</i>
   <i name="EDIFFG">     -0.02000000</i>
   <i type="int" name="NFREE">     0</i>
   <i name="POTIM">      0.50000000</i>
   <i name="SMASS">     -3.00000000</i>
   <i name="SCALEE">      1.00000000</i>
  </separator>
  <separator name="ionic md" >
   <i name="TEBEG">      0.00010000</i>
   <i name="TEEND">      0.00010000</i>
   <i type="int" name="NBLOCK">     1</i>
   <i type="int" name="KBLOCK">     1</i>
   <i type="int" name="NPACO">   256</i>
   <i name="APACO">     10.00000000</i>
  </separator>
  <separator name="symmetry" >
   <i type="int" name="ISYM">     1</i>
   <i name="SYMPREC">      0.00001000</i>
  </separator>
  <separator name="dos" >
   <i type="int" name="LORBIT">     0</i>
   <v name="RWIGS">     -1.00000000</v>
   <i type="int" name="NEDOS">   301</i>
   <i name="EMIN">     10.00000000</i>
   <i name="EMAX">    -10.00000000</i>
   <i name="EFERMI">      0.00000000</i>
  </separator>
  <separator name="writing" >
   <i type="int" name="NWRITE">     2</i>
   <i type="logical" name="LWAVE"> F  </i>
   <i type="logical" name="LDOWNSAMPLE"> F  </i>
   <i type="logical" name="LCHARG"> F  </i>
   <i type="logical" name="LPARD"> F  </i>
   <i type="logical" name="LVTOT"> F  </i>
   <i type="logical" name="LVHAR"> F  </i>
   <i type="logical" name="LELF"> F  </i>
   <i type="logical" name="LOPTICS"> F  </i>
   <v name="STM">      0.00000000      0.00000000      0.00000000      0.00000000      0.00000000      0.00000000      0.00000000</v>
  </separator>
  <separator name="performance" >
   <i type="int" name="NPAR">     4</i>
   <i type="int" name="NSIM">     4</i>
   <i type="int" name="NBLK">    -1</i>
   <i type="logical" name="LPLANE"> T  </i>
   <i type="logical" name="LSCALAPACK"> T  </i>
   <i type="logical" name="LSCAAWARE"> F  </i>
   <i type="logical" name="LSCALU"> F  </i>
   <i type="logical" name="LASYNC"> F  </i>
   <i type="logical" name="LORBITALREAL"> F  </i>
  </separator>
  <separator name="miscellaneous" >
   <i type="int" name="IDIOT">     3</i>
   <i type="int" name="PHON_NSTRUCT">    -1</i>
   <i type="logical" name="LMUSIC"> F  </i>
   <v name="POMASS">     58.93300000</v>
   <v name="DARWINR">      0.00000000</v>
   <v name="DARWINV">      1.00000000</v>
   <i type="logical" name="LCORR"> T  </i>
  </separator>
  <i type="logical" name="GGA_COMPAT"> T  </i>
  <i type="logical" name="LBERRY"> F  </i>
  <i type="int" name="ICORELEVEL">     0</i>
  <i type="logical" name="LDAU"> F  </i>
  <i type="int" name="I_CONSTRAINED_M">     0</i>
  <separator name="electronic exchange-correlation" >
   <i type="string" name="GGA">--</i>
   <i type="int" name="VOSKOWN">     0</i>
   <i type="logical" name="LHFCALC"> F  </i>
   <i type="string" name="PRECFOCK"></i>
   <i type="logical" name="LSYMGRAD"> F  </i>
   <i type="logical" name="LHFONE"> F  </i>
   <i type="logical" name="LRHFCALC"> F  </i>
   <i type="logical" name="LTHOMAS"> F  </i>
   <i type="logical" name="LMODELHF"> F  </i>
   <i type="logical" name="LFOCKACE"> F  </i>
   <i name="ENCUT4O">     -1.00000000</i>
   <i type="int" name="EXXOEP">     0</i>
   <i type="int" name="FOURORBIT">     0</i>
   <i name="AEXX">      0.00000000</i>
   <i name="HFALPHA">      0.00000000</i>
   <i name="MCALPHA">      0.00000000</i>
   <i name="ALDAX">      1.00000000</i>
   <i name="AGGAX">      1.00000000</i>
   <i name="ALDAC">      1.00000000</i>
   <i name="AGGAC">      1.00000000</i>
   <i type="int" name="NKREDX">     1</i>
   <i type="int" name="NKREDY">     1</i>
   <i type="int" name="NKREDZ">     1</i>
   <i type="logical" name="SHIFTRED"> F  </i>
   <i type="logical" name="ODDONLY"> F  </i>
   <i type="logical" name="EVENONLY"> F  </i>
   <i type="int" name="LMAXFOCK">     0</i>
   <i type="int" name="NMAXFOCKAE">     0</i>
   <i type="logical" name="LFOCKAEDFT"> F  </i>
   <i name="HFSCREEN">      0.00000000</i>
   <i name="HFSCREENC">      0.00000000</i>
   <i type="int" name="NBANDSGWLOW">     0</i>
  </separator>
  <separator name="vdW DFT" >
   <i type="logical" name="LUSE_VDW"> F  </i>
   <i name="Zab_VDW">     -0.84910000</i>
   <i name="PARAM1">      0.12340000</i>
   <i name="PARAM2">      1.00000000</i>
   <i name="PARAM3">      0.00000000</i>
  </separator>
  <separator name="model GW" >
   <i type="int" name="MODEL_GW">     0</i>
   <i name="MODEL_EPS0">      6.38408146</i>
   <i name="MODEL_ALPHA">      1.00000000</i>
  </separator>
  <separator name="linear response parameters" >
   <i type="logical" name="LEPSILON"> F  </i>
   <i type="logical" name="LRPA"> F  </i>
   <i type="logical" name="LNABLA"> F  </i>
   <i type="logical" name="LVEL"> F  </i>
   <i name="CSHIFT">      0.10000000</i>
   <i name="OMEGAMAX">     -1.00000000</i>
   <i name="DEG_THRESHOLD">      0.00200000</i>
   <i name="RTIME">     -0.10000000</i>
   <i name="WPLASMAI">      0.00000000</i>
   <v name="DFIELD">      0.00000000      0.00000000      0.00000000</v>
   <v name="WPLASMA">      0.00000000      0.00000000      0.00000000      0.00000000      0.00000000      0.00000000      0.00000000      0.00000000      0.00000000</v>
  </separator>
  <separator name="orbital magnetization" >
   <i type="logical" name="NUCIND"> F  </i>
   <v name="MAGPOS">      0.00000000      0.00000000      0.00000000</v>
   <i type="logical" name="LNICSALL"> T  </i>
   <i type="logical" name="ORBITALMAG"> F  </i>
   <i type="logical" name="LMAGBLOCH"> F  </i>
   <i type="logical" name="LCHIMAG"> F  </i>
   <i type="logical" name="LGAUGE"> T  </i>
   <i type="int" name="MAGATOM">     0</i>
   <v name="MAGDIPOL">      0.00000000      0.00000000      0.00000000</v>
   <v name="AVECCONST">      0.00000000      0.00000000      0.00000000</v>
  </separator>
  <separator name="response functions" >
   <i type="logical" name="LFINITE_TEMPERATURE"> F  </i>
   <i type="logical" name="LADDER"> F  </i>
   <i type="logical" name="LRPAFORCE"> F  </i>
   <i type="logical" name="LFXC"> F  </i>
   <i type="logical" name="LHARTREE"> T  </i>
   <i type="int" name="IBSE">     0</i>
   <v type="int" name="KPOINT">    -1     0     0     0</v>
   <i type="logical" name="LTCTC"> F  </i>
   <i type="logical" name="LTCTE"> F  </i>
   <i type="logical" name="LTETE"> F  </i>
   <i type="logical" name="LTRIPLET"> F  </i>
   <i type="logical" name="LFXCEPS"> F  </i>
   <i type="logical" name="LFXHEG"> F  </i>
   <i type="int" name="NATURALO">     2</i>
   <i type="logical" name="LHOLEGF"> F  </i>
   <i type="logical" name="L2ORDER"> F  </i>
   <i type="logical" name="LDMP1"> F  </i>
   <i type="logical" name="LMP2LT"> F  </i>
   <i type="logical" name="LSMP2LT"> F  </i>
   <i type="logical" name="LGWLF"> F  </i>
   <i name="ENCUTGW">     -2.00000000</i>
   <i name="ENCUTGWSOFT">     -2.00000000</i>
   <i name="ENCUTLF">     -1.00000000</i>
   <i type="logical" name="LESF_SPLINES"> F  </i>
   <i type="int" name="LMAXMP2">    -1</i>
   <i name="SCISSOR">      0.00000000</i>
   <i type="int" name="NOMEGA">     0</i>
   <i type="int" name="NOMEGAR">     0</i>
   <i type="int" name="NBANDSGW">    -1</i>
   <i type="int" name="NBANDSO">    -1</i>
   <i type="int" name="NBANDSV">    -1</i>
   <i type="int" name="NELMGW">     1</i>
   <i type="int" name="NELMHF">     1</i>
   <i type="int" name="DIM">     3</i>
   <i type="int" name="IESPILON">     4</i>
   <i type="int" name="ANTIRES">     0</i>
   <i name="OMEGAMAX">    -30.00000000</i>
   <i name="OMEGAMIN">    -30.00000000</i>
   <i name="OMEGATL">   -200.00000000</i>
   <i type="int" name="OMEGAGRID">     0</i>
   <i name="CSHIFT">     -0.10000000</i>
   <i type="logical" name="LSELFENERGY"> F  </i>
   <i type="logical" name="LSPECTRAL"> F  </i>
   <i type="logical" name="LSPECTRALGW"> F  </i>
   <i type="logical" name="LSINGLES"> F  </i>
   <i type="logical" name="LFERMIGW"> F  </i>
   <i type="logical" name="ODDONLYGW"> F  </i>
   <i type="logical" name="EVENONLYGW"> F  </i>
   <i type="int" name="NKREDLFX">     1</i>
   <i type="int" name="NKREDLFY">     1</i>
   <i type="int" name="NKREDLFZ">     1</i>
   <i type="int" name="MAXMEM">  2800</i>
   <i type="int" name="TELESCOPE">     0</i>
   <i type="int" name="NTAUPAR">    -1</i>
   <i type="int" name="NOMEGAPAR">    -1</i>
   <i name="DAMP_NEWTON">      0.80000001</i>
   <i name="LAMBDA">      1.00000000</i>
  </separator>
  <separator name="External order field" >
   <i name="OFIELD_KAPPA">      0.00000000</i>
   <v name="OFIELD_K">      0.00000000      0.00000000      0.00000000</v>
   <i name="OFIELD_Q6_NEAR">      0.00000000</i>
   <i name="OFIELD_Q6_FAR">      0.00000000</i>
   <i name="OFIELD_A">      0.00000000</i>
  </separator>
  <separator name="optional k-points parameters" >
   <i type="int" name="KPOINTS_OPT_MODE">     1</i>
   <i type="logical" name="LKPOINTS_OPT"> F  </i>
  </separator>
 </parameters>
 <atominfo>
  <atoms>       2 </atoms>
  <types>       1 </types>
  <array name="atoms" >
   <dimension dim="1">ion</dimension>
   <field type="string">element</field>
   <field type="int">atomtype</field>
   <set>
    <rc><c>Co</c><c>   1</c></rc>
    <rc><c>Co</c><c>   1</c></rc>
   </set>
  </array>
  <array name="atomtypes" >
   <dimension dim="1">type</dimension>
   <field type="int">atomspertype</field>
   <field type="string">element</field>
   <field>mass</field>
   <field>valence</field>
   <field type="string">pseudopotential</field>
   <set>
    <rc><c>   2</c><c>Co</c><c>     58.93300000</c><c>      9.00000000</c><c>  PAW_PBE Co 02Aug2007                  </c></rc>
   </set>
  </array>
 </atominfo>
 <structure name="initialpos" >
  <crystal>
   <varray name="basis" >
    <v>       1.23599995      -2.14081471       0.00000000 </v>
    <v>       1.23599995       2.14081471       0.00000000 </v>
    <v>       0.00000000       0.00000000       4.02114408 </v>
   </varray>
   <i name="volume">     21.28027152 </i>
   <varray name="rec_basis" >
    <v>       0.40453076      -0.23355594       0.00000000 </v>
    <v>       0.40453076       0.23355594       0.00000000 </v>
    <v>       0.00000000       0.00000000       0.24868544 </v>
   </varray>
  </crystal>
  <varray name="positions" >
   <v>       0.33333333       0.66666667       0.25000000 </v>
   <v>       0.66666667       0.33333333       0.75000000 </v>
  </varray>
 </structure>
 <calculation>
  <scstep>
   <time name="dav">    0.43    0.43</time>
   <time name="total">    0.44    0.45</time>
   <energy>
    <i name="alphaZ">     79.61870385 </i>
    <i name="ewald">  -1531.60263765 </i>
    <i name="hartreedc">   -295.86427829 </i>
    <i name="XCdc">     35.75670864 </i>
    <i name="pawpsdc">   1439.98163886 </i>
    <i name="pawaedc">  -1545.88690193 </i>
    <i name="eentropy">     -0.00106834 </i>
    <i name="bandstr">    261.46692664 </i>
    <i name="atom">   1626.72687985 </i>
    <i name="e_fr_energy">     70.19597163 </i>
    <i name="e_wo_entrp">     70.19703997 </i>
    <i name="e_0_energy">     70.19632774 </i>
   </energy>
  </scstep>
  <scstep>
   <time name="dav">    0.40    0.41</time>
   <time name="total">    0.41    0.41</time>
   <energy>
    <i name="e_fr_energy">    -13.69190442 </i>
    <i name="e_wo_entrp">    -13.69407239 </i>
    <i name="e_0_energy">    -13.69262707 </i>
   </energy>
  </scstep>
  <scstep>
   <time name="dav">    0.48    0.48</time>
   <time name="total">    0.48    0.48</time>
   <energy>
    <i name="e_fr_energy">    -15.57967887 </i>
    <i name="e_wo_entrp">    -15.58000065 </i>
    <i name="e_0_energy">    -15.57978613 </i>
   </energy>
  </scstep>
  <scstep>
   <time name="dav">    0.56    0.57</time>
   <time name="total">    0.56    0.57</time>
   <energy>
    <i name="e_fr_energy">    -15.61154370 </i>
    <i name="e_wo_entrp">    -15.61188267 </i>
    <i name="e_0_energy">    -15.61165669 </i>
   </energy>
  </scstep>
  <scstep>
   <time name="dav">    0.48    0.49</time>
   <time name="total">    0.51    0.51</time>
   <energy>
    <i name="e_fr_energy">    -15.61170409 </i>
    <i name="e_wo_entrp">    -15.61204317 </i>
    <i name="e_0_energy">    -15.61181712 </i>
   </energy>
  </scstep>
  <scstep>
   <time name="dav">    0.43    0.43</time>
   <time name="total">    0.46    0.47</time>
   <energy>
    <i name="e_fr_energy">    -14.41266088 </i>
    <i name="e_wo_entrp">    -14.41185043 </i>
    <i name="e_0_energy">    -14.41239073 </i>
   </energy>
  </scstep>
  <scstep>
   <time name="dav">    0.45    0.45</time>
   <time name="total">    0.48    0.49</time>
   <energy>
    <i name="e_fr_energy">    -14.10193933 </i>
    <i name="e_wo_entrp">    -14.10177679 </i>
    <i name="e_0_energy">    -14.10188515 </i>
   </energy>
  </scstep>
  <scstep>
   <time name="dav">    0.54    0.55</time>
   <time name="total">    0.58    0.58</time>
   <energy>
    <i name="e_fr_energy">    -14.07914975 </i>
    <i name="e_wo_entrp">    -14.07924497 </i>
    <i name="e_0_energy">    -14.07918149 </i>
   </energy>
  </scstep>
  <scstep>
   <time name="dav">    0.56    0.56</time>
   <time name="total">    0.60    0.60</time>
   <energy>
    <i name="e_fr_energy">    -14.06439507 </i>
    <i name="e_wo_entrp">    -14.06475594 </i>
    <i name="e_0_energy">    -14.06451536 </i>
   </energy>
  </scstep>
  <scstep>
   <time name="dav">    0.53    0.53</time>
   <time name="total">    0.56    0.57</time>
   <energy>
    <i name="e_fr_energy">    -14.06374161 </i>
    <i name="e_wo_entrp">    -14.06410274 </i>
    <i name="e_0_energy">    -14.06386199 </i>
   </energy>
  </scstep>
  <scstep>
   <time name="dav">    0.56    0.56</time>
   <time name="total">    0.59    0.60</time>
   <energy>
    <i name="e_fr_energy">    -14.06376372 </i>
    <i name="e_wo_entrp">    -14.06406370 </i>
    <i name="e_0_energy">    -14.06386371 </i>
   </energy>
  </scstep>
  <scstep>
   <time name="dav">    0.43    0.43</time>
   <time name="total">    0.46    0.47</time>
   <energy>
    <i name="e_fr_energy">    -14.06376099 </i>
    <i name="e_wo_entrp">    -14.06405993 </i>
    <i name="e_0_energy">    -14.06386063 </i>
   </energy>
  </scstep>
  <scstep>
   <time name="dav">    0.33    0.33</time>
   <time name="total">    0.34    0.34</time>
   <energy>
    <i name="alphaZ">     79.61870385 </i>
    <i name="ewald">  -1531.60263765 </i>
    <i name="hartreedc">   -260.41368808 </i>
    <i name="XCdc">     33.00313071 </i>
    <i name="pawpsdc">   1829.59388724 </i>
    <i name="pawaedc">  -1935.82343858 </i>
    <i name="eentropy">      0.00029358 </i>
    <i name="bandstr">    144.83310846 </i>
    <i name="atom">   1626.72687985 </i>
    <i name="e_fr_energy">    -14.06376063 </i>
    <i name="e_wo_entrp">    -14.06405421 </i>
    <i name="e_0_energy">    -14.06385849 </i>
   </energy>
  </scstep>
  <structure>
   <crystal>
    <varray name="basis" >
     <v>       1.23599995      -2.14081471       0.00000000 </v>
     <v>       1.23599995       2.14081471       0.00000000 </v>
     <v>       0.00000000       0.00000000       4.02114408 </v>
    </varray>
    <i name="volume">     21.28027152 </i>
    <varray name="rec_basis" >
     <v>       0.40453076      -0.23355594       0.00000000 </v>
     <v>       0.40453076       0.23355594       0.00000000 </v>
     <v>       0.00000000       0.00000000       0.24868544 </v>
    </varray>
   </crystal>
   <varray name="positions" >
    <v>       0.33333333       0.66666667       0.25000000 </v>
    <v>       0.66666667       0.33333333       0.75000000 </v>
   </varray>
  </structure>
  <varray name="forces" >
   <v>      -0.00000000      -0.00000000      -0.00000000 </v>
   <v>       0.00000000       0.00000000       0.00000000 </v>
  </varray>
  <varray name="stress" >
   <v>      52.84989267       0.00000000       0.00000000 </v>
   <v>      -0.00000000      52.84989267      -0.00000000 </v>
   <v>      -0.00000000       0.00000000      33.85644972 </v>
  </varray>
  <energy>
   <i name="e_fr_energy">    -14.06376063 </i>
   <i name="e_wo_entrp">    -14.06405421 </i>
   <i name="e_0_energy">    -14.06385849 </i>
  </energy>
  <time name="totalsc">    6.61    6.66</time>
  <eigenvalues>
   <array>
    <dimension dim="1">band</dimension>
    <dimension dim="2">kpoint</dimension>
    <dimension dim="3">spin</dimension>
    <field>eigene</field>
    <field>occ</field>
    <set>
     <set comment="spin 1">
      <set comment="kpoint 1">
       <r>    1.5013    1.0000 </r>
       <r>    5.2813    1.0000 </r>
       <r>    7.8271    1.0000 </r>
       <r>    7.8848    1.0000 </r>
       <r>    7.8848    1.0000 </r>
       <r>    8.1990    1.0000 </r>
       <r>    8.1990    1.0000 </r>
       <r>    8.5755    1.0000 </r>
       <r>    8.5755    1.0000 </r>
       <r>    9.6834    1.0000 </r>
       <r>    9.6834    1.0000 </r>
       <r>   10.3737    0.9110 </r>
       <r>   16.9498    0.0000 </r>
       <r>   32.7495    0.0000 </r>
       <r>   35.5481    0.0000 </r>
       <r>   35.5487    0.0000 </r>
      </set>
      <set comment="kpoint 2">
       <r>    1.8569    1.0000 </r>
       <r>    5.4930    1.0000 </r>
       <r>    7.5812    1.0000 </r>
       <r>    8.0521    1.0000 </r>
       <r>    8.0612    1.0000 </r>
       <r>    8.1502    1.0000 </r>
       <r>    8.3057    1.0000 </r>
       <r>    8.3475    1.0000 </r>
       <r>    8.4734    1.0000 </r>
       <r>    8.7608    1.0000 </r>
       <r>    9.7251    1.0000 </r>
       <r>   11.8035   -0.0000 </r>
       <r>   17.0114    0.0000 </r>
       <r>   30.2280    0.0000 </r>
       <r>   32.8704    0.0000 </r>
       <r>   33.0891    0.0000 </r>
      </set>
      <set comment="kpoint 3">
       <r>    2.8632    1.0000 </r>
       <r>    5.9512    1.0000 </r>
       <r>    7.2694    1.0000 </r>
       <r>    7.3479    1.0000 </r>
       <r>    7.9084    1.0000 </r>
       <r>    8.2387    1.0000 </r>
       <r>    8.4314    1.0000 </r>
       <r>    8.5057    1.0000 </r>
       <r>    8.5109    1.0000 </r>
       <r>    8.7507    1.0000 </r>
       <r>    9.8031    1.0000 </r>
       <r>   13.8249   -0.0000 </r>
       <r>   17.2377    0.0000 </r>
       <r>   25.5875    0.0000 </r>
       <r>   30.0534    0.0000 </r>
       <r>   31.9330    0.0000 </r>
      </set>
      <set comment="kpoint 4">
       <r>    4.2623    1.0000 </r>
       <r>    6.0766    1.0000 </r>
       <r>    6.5751    1.0000 </r>
       <r>    7.2497    1.0000 </r>
       <r>    7.9158    1.0000 </r>
       <r>    7.9871    1.0000 </r>
       <r>    8.1905    1.0000 </r>
       <r>    9.1227    1.0000 </r>
       <r>    9.1842    1.0000 </r>
       <r>    9.2866    1.0000 </r>
       <r>    9.8635    1.0000 </r>
       <r>   16.1158    0.0000 </r>
       <r>   17.5930    0.0000 </r>
       <r>   21.4226    0.0000 </r>
       <r>   27.7644    0.0000 </r>
       <r>   28.8714    0.0000 </r>
      </set>
      <set comment="kpoint 5">
       <r>    5.3468    1.0000 </r>
       <r>    5.8552    1.0000 </r>
       <r>    6.1104    1.0000 </r>
       <r>    7.6324    1.0000 </r>
       <r>    7.8029    1.0000 </r>
       <r>    8.0077    1.0000 </r>
       <r>    8.1720    1.0000 </r>
       <r>    9.6437    1.0000 </r>
       <r>    9.7771    1.0000 </r>
       <r>    9.8952    1.0001 </r>
       <r>   10.3992    0.8432 </r>
       <r>   16.1869    0.0000 </r>
       <r>   18.5759    0.0000 </r>
       <r>   20.1279    0.0000 </r>
       <r>   25.4545    0.0000 </r>
       <r>   26.2183    0.0000 </r>
      </set>
      <set comment="kpoint 6">
       <r>    5.6615    1.0000 </r>
       <r>    5.7048    1.0000 </r>
       <r>    5.9562    1.0000 </r>
       <r>    7.7359    1.0000 </r>
       <r>    7.9393    1.0000 </r>
       <r>    7.9813    1.0000 </r>
       <r>    8.2836    1.0000 </r>
       <r>    9.8412    1.0000 </r>
       <r>    9.9044    1.0001 </r>
       <r>    9.9898    1.0012 </r>
       <r>   11.8771   -0.0000 </r>
       <r>   13.9462   -0.0000 </r>
       <r>   20.3225    0.0000 </r>
       <r>   21.0027    0.0000 </r>
       <r>   23.3945    0.0000 </r>
       <r>   24.6972    0.0000 </r>
      </set>
      <set comment="kpoint 7">
       <r>    2.5408    1.0000 </r>
       <r>    5.8474    1.0000 </r>
       <r>    7.3050    1.0000 </r>
       <r>    7.6351    1.0000 </r>
       <r>    7.9914    1.0000 </r>
       <r>    8.1904    1.0000 </r>
       <r>    8.2746    1.0000 </r>
       <r>    8.3934    1.0000 </r>
       <r>    8.5956    1.0000 </r>
       <r>    8.6825    1.0000 </r>
       <r>    9.7659    1.0000 </r>
       <r>   13.2588   -0.0000 </r>
       <r>   17.1617    0.0000 </r>
       <r>   27.7583    0.0000 </r>
       <r>   28.4452    0.0000 </r>
       <r>   34.6061    0.0000 </r>
      </set>
      <set comment="kpoint 8">
       <r>    3.7756    1.0000 </r>
       <r>    6.2265    1.0000 </r>
       <r>    6.8593    1.0000 </r>
       <r>    7.0251    1.0000 </r>
       <r>    7.8942    1.0000 </r>
       <r>    7.9153    1.0000 </r>
       <r>    8.4005    1.0000 </r>
       <r>    8.6277    1.0000 </r>
       <r>    8.9786    1.0000 </r>
       <r>    9.2973    1.0000 </r>
       <r>    9.8071    1.0000 </r>
       <r>   15.2975   -0.0000 </r>
       <r>   17.5445    0.0000 </r>
       <r>   23.5085    0.0000 </r>
       <r>   26.1494    0.0000 </r>
       <r>   30.8995    0.0000 </r>
      </set>
      <set comment="kpoint 9">
       <r>    5.1148    1.0000 </r>
       <r>    6.1058    1.0000 </r>
       <r>    6.3077    1.0000 </r>
       <r>    7.1773    1.0000 </r>
       <r>    7.7376    1.0000 </r>
       <r>    8.0605    1.0000 </r>
       <r>    8.1433    1.0000 </r>
       <r>    9.1940    1.0000 </r>
       <r>    9.5525    1.0000 </r>
       <r>    9.8350    1.0000 </r>
       <r>   10.1832    1.0262 </r>
       <r>   17.6104    0.0000 </r>
       <r>   17.6511    0.0000 </r>
       <r>   20.2368    0.0000 </r>
       <r>   24.5546    0.0000 </r>
       <r>   27.2725    0.0000 </r>
      </set>
      <set comment="kpoint 10">
       <r>    5.7486    1.0000 </r>
       <r>    5.8976    1.0000 </r>
       <r>    6.0294    1.0000 </r>
       <r>    7.6344    1.0000 </r>
       <r>    7.6823    1.0000 </r>
       <r>    7.9395    1.0000 </r>
       <r>    8.2786    1.0000 </r>
       <r>    9.7249    1.0000 </r>
       <r>    9.8465    1.0000 </r>
       <r>    9.8527    1.0000 </r>
       <r>   11.6726   -0.0000 </r>
       <r>   15.0212   -0.0000 </r>
       <r>   20.0531    0.0000 </r>
       <r>   20.8640    0.0000 </r>
       <r>   23.5200    0.0000 </r>
       <r>   24.2367    0.0000 </r>
      </set>
      <set comment="kpoint 11">
       <r>    5.0482    1.0000 </r>
       <r>    6.4353    1.0000 </r>
       <r>    6.5075    1.0000 </r>
       <r>    6.6752    1.0000 </r>
       <r>    7.6371    1.0000 </r>
       <r>    8.0251    1.0000 </r>
       <r>    8.2403    1.0000 </r>
       <r>    8.8320    1.0000 </r>
       <r>    9.5557    1.0000 </r>
       <r>    9.7762    1.0000 </r>
       <r>   10.2201    1.0335 </r>
       <r>   17.3436    0.0000 </r>
       <r>   18.1903    0.0000 </r>
       <r>   21.6007    0.0000 </r>
       <r>   22.2155    0.0000 </r>
       <r>   29.2960    0.0000 </r>
      </set>
      <set comment="kpoint 12">
       <r>    6.0181    1.0000 </r>
       <r>    6.1673    1.0000 </r>
       <r>    6.3030    1.0000 </r>
       <r>    6.9316    1.0000 </r>
       <r>    7.5437    1.0000 </r>
       <r>    7.9759    1.0000 </r>
       <r>    8.2782    1.0000 </r>
       <r>    9.2318    1.0000 </r>
       <r>    9.7495    1.0000 </r>
       <r>    9.8511    1.0000 </r>
       <r>   11.6323   -0.0000 </r>
       <r>   17.2268    0.0000 </r>
       <r>   19.7456    0.0000 </r>
       <r>   19.9524    0.0000 </r>
       <r>   21.3033    0.0000 </r>
       <r>   26.1835    0.0000 </r>
      </set>
      <set comment="kpoint 13">
       <r>    6.0773    1.0000 </r>
       <r>    6.1851    1.0000 </r>
       <r>    6.2141    1.0000 </r>
       <r>    7.2391    1.0000 </r>
       <r>    7.5796    1.0000 </r>
       <r>    7.8025    1.0000 </r>
       <r>    8.4043    1.0000 </r>
       <r>    9.5883    1.0000 </r>
       <r>    9.7394    1.0000 </r>
       <r>    9.7910    1.0000 </r>
       <r>   13.3402   -0.0000 </r>
       <r>   14.7731   -0.0000 </r>
       <r>   19.9719    0.0000 </r>
       <r>   21.6769    0.0000 </r>
       <r>   21.9978    0.0000 </r>
       <r>   23.9242    0.0000 </r>
      </set>
      <set comment="kpoint 14">
       <r>    6.1291    1.0000 </r>
       <r>    6.4183    1.0000 </r>
       <r>    6.5768    1.0000 </r>
       <r>    6.8101    1.0000 </r>
       <r>    7.5322    1.0000 </r>
       <r>    7.7291    1.0000 </r>
       <r>    8.5000    1.0000 </r>
       <r>    9.4160    1.0000 </r>
       <r>    9.6861    1.0000 </r>
       <r>    9.7447    1.0000 </r>
       <r>   13.7646   -0.0000 </r>
       <r>   16.7914    0.0000 </r>
       <r>   16.8262    0.0000 </r>
       <r>   22.2249    0.0000 </r>
       <r>   22.4846    0.0000 </r>
       <r>   25.1061    0.0000 </r>
      </set>
      <set comment="kpoint 15">
       <r>    1.6600    1.0000 </r>
       <r>    5.2502    1.0000 </r>
       <r>    7.7866    1.0000 </r>
       <r>    7.8447    1.0000 </r>
       <r>    7.8447    1.0000 </r>
       <r>    8.1566    1.0000 </r>
       <r>    8.1566    1.0000 </r>
       <r>    8.6718    1.0000 </r>
       <r>    8.6718    1.0000 </r>
       <r>    9.6744    1.0000 </r>
       <r>    9.6744    1.0000 </r>
       <r>    9.7638    1.0000 </r>
       <r>   17.8709    0.0000 </r>
       <r>   32.6766    0.0000 </r>
       <r>   34.7584    0.0000 </r>
       <r>   35.5600    0.0000 </r>
      </set>
      <set comment="kpoint 16">
       <r>    2.0119    1.0000 </r>
       <r>    5.4740    1.0000 </r>
       <r>    7.5853    1.0000 </r>
       <r>    7.9481    1.0000 </r>
       <r>    7.9814    1.0000 </r>
       <r>    7.9935    1.0000 </r>
       <r>    8.2973    1.0000 </r>
       <r>    8.4350    1.0000 </r>
       <r>    8.5995    1.0000 </r>
       <r>    8.7409    1.0000 </r>
       <r>    9.7101    1.0000 </r>
       <r>   11.2423   -0.0000 </r>
       <r>   18.0052    0.0000 </r>
       <r>   30.3239    0.0000 </r>
       <r>   33.0279    0.0000 </r>
       <r>   33.0297    0.0000 </r>
      </set>
      <set comment="kpoint 17">
       <r>    3.0026    1.0000 </r>
       <r>    5.9672    1.0000 </r>
       <r>    7.2110    1.0000 </r>
       <r>    7.3039    1.0000 </r>
       <r>    7.8389    1.0000 </r>
       <r>    8.1997    1.0000 </r>
       <r>    8.2957    1.0000 </r>
       <r>    8.5894    1.0000 </r>
       <r>    8.7048    1.0000 </r>
       <r>    8.7330    1.0000 </r>
       <r>    9.7762    1.0000 </r>
       <r>   12.9320   -0.0000 </r>
       <r>   18.4724    0.0000 </r>
       <r>   25.7229    0.0000 </r>
       <r>   30.2447    0.0000 </r>
       <r>   31.2083    0.0000 </r>
      </set>
      <set comment="kpoint 18">
       <r>    4.3498    1.0000 </r>
       <r>    6.1096    1.0000 </r>
       <r>    6.5481    1.0000 </r>
       <r>    7.2270    1.0000 </r>
       <r>    7.8245    1.0000 </r>
       <r>    8.0315    1.0000 </r>
       <r>    8.3308    1.0000 </r>
       <r>    9.1419    1.0000 </r>
       <r>    9.1784    1.0000 </r>
       <r>    9.2411    1.0000 </r>
       <r>    9.8298    1.0000 </r>
       <r>   14.6501   -0.0000 </r>
       <r>   19.2667    0.0000 </r>
       <r>   21.5959    0.0000 </r>
       <r>   27.6467    0.0000 </r>
       <r>   27.9838    0.0000 </r>
      </set>
      <set comment="kpoint 19">
       <r>    5.2919    1.0000 </r>
       <r>    5.8481    1.0000 </r>
       <r>    6.2941    1.0000 </r>
       <r>    7.2217    1.0000 </r>
       <r>    7.8661    1.0000 </r>
       <r>    8.1666    1.0000 </r>
       <r>    8.5378    1.0000 </r>
       <r>    9.6434    1.0000 </r>
       <r>    9.6931    1.0000 </r>
       <r>    9.8897    1.0001 </r>
       <r>   10.3142    1.0074 </r>
       <r>   15.4740   -0.0000 </r>
       <r>   18.3680    0.0000 </r>
       <r>   21.0848    0.0000 </r>
       <r>   24.5347    0.0000 </r>
       <r>   26.4584    0.0000 </r>
      </set>
      <set comment="kpoint 20">
       <r>    5.4814    1.0000 </r>
       <r>    5.6935    1.0000 </r>
       <r>    6.2820    1.0000 </r>
       <r>    7.2473    1.0000 </r>
       <r>    7.8040    1.0000 </r>
       <r>    8.2878    1.0000 </r>
       <r>    8.7798    1.0000 </r>
       <r>    9.7663    1.0000 </r>
       <r>    9.8842    1.0001 </r>
       <r>    9.9854    1.0010 </r>
       <r>   11.7599   -0.0000 </r>
       <r>   13.8477   -0.0000 </r>
       <r>   19.7605    0.0000 </r>
       <r>   20.1363    0.0000 </r>
       <r>   24.5546    0.0000 </r>
       <r>   25.5831    0.0000 </r>
      </set>
      <set comment="kpoint 21">
       <r>    2.6866    1.0000 </r>
       <r>    5.8535    1.0000 </r>
       <r>    7.3252    1.0000 </r>
       <r>    7.4545    1.0000 </r>
       <r>    7.9744    1.0000 </r>
       <r>    8.0606    1.0000 </r>
       <r>    8.2887    1.0000 </r>
       <r>    8.4459    1.0000 </r>
       <r>    8.6996    1.0000 </r>
       <r>    8.7100    1.0000 </r>
       <r>    9.7460    1.0000 </r>
       <r>   12.4763   -0.0000 </r>
       <r>   18.3121    0.0000 </r>
       <r>   27.8771    0.0000 </r>
       <r>   28.5932    0.0000 </r>
       <r>   33.5036    0.0000 </r>
      </set>
      <set comment="kpoint 22">
       <r>    3.8919    1.0000 </r>
       <r>    6.2711    1.0000 </r>
       <r>    6.7629    1.0000 </r>
       <r>    7.0645    1.0000 </r>
       <r>    7.7733    1.0000 </r>
       <r>    8.0195    1.0000 </r>
       <r>    8.3187    1.0000 </r>
       <r>    8.6828    1.0000 </r>
       <r>    9.0563    1.0000 </r>
       <r>    9.2459    1.0000 </r>
       <r>    9.7977    1.0000 </r>
       <r>   14.0869   -0.0000 </r>
       <r>   19.0385    0.0000 </r>
       <r>   23.6546    0.0000 </r>
       <r>   26.3063    0.0000 </r>
       <r>   29.8207    0.0000 </r>
      </set>
      <set comment="kpoint 23">
       <r>    5.1383    1.0000 </r>
       <r>    6.1372    1.0000 </r>
       <r>    6.3465    1.0000 </r>
       <r>    7.1032    1.0000 </r>
       <r>    7.7728    1.0000 </r>
       <r>    8.0918    1.0000 </r>
       <r>    8.2352    1.0000 </r>
       <r>    9.1794    1.0000 </r>
       <r>    9.5961    1.0000 </r>
       <r>    9.7035    1.0000 </r>
       <r>   10.2184    1.0332 </r>
       <r>   15.6800   -0.0000 </r>
       <r>   19.2210    0.0000 </r>
       <r>   20.9010    0.0000 </r>
       <r>   24.6940    0.0000 </r>
       <r>   26.2117    0.0000 </r>
      </set>
      <set comment="kpoint 24">
       <r>    5.5917    1.0000 </r>
       <r>    5.8861    1.0000 </r>
       <r>    6.3378    1.0000 </r>
       <r>    7.1744    1.0000 </r>
       <r>    7.7158    1.0000 </r>
       <r>    8.3114    1.0000 </r>
       <r>    8.4162    1.0000 </r>
       <r>    9.6769    1.0000 </r>
       <r>    9.7713    1.0000 </r>
       <r>    9.8792    1.0001 </r>
       <r>   11.6557   -0.0000 </r>
       <r>   14.8587   -0.0000 </r>
       <r>   19.0860    0.0000 </r>
       <r>   21.2056    0.0000 </r>
       <r>   23.6319    0.0000 </r>
       <r>   24.5055    0.0000 </r>
      </set>
      <set comment="kpoint 25">
       <r>    5.1098    1.0000 </r>
       <r>    6.3519    1.0000 </r>
       <r>    6.6226    1.0000 </r>
       <r>    6.7038    1.0000 </r>
       <r>    7.6792    1.0000 </r>
       <r>    8.0080    1.0000 </r>
       <r>    8.1744    1.0000 </r>
       <r>    8.8650    1.0000 </r>
       <r>    9.6140    1.0000 </r>
       <r>    9.6344    1.0000 </r>
       <r>   10.2891    1.0255 </r>
       <r>   15.6449   -0.0000 </r>
       <r>   20.0758    0.0000 </r>
       <r>   21.7530    0.0000 </r>
       <r>   22.4107    0.0000 </r>
       <r>   28.2045    0.0000 </r>
      </set>
      <set comment="kpoint 26">
       <r>    5.9168    1.0000 </r>
       <r>    6.2853    1.0000 </r>
       <r>    6.3592    1.0000 </r>
       <r>    6.8919    1.0000 </r>
       <r>    7.6251    1.0000 </r>
       <r>    7.9497    1.0000 </r>
       <r>    8.2984    1.0000 </r>
       <r>    9.2405    1.0000 </r>
       <r>    9.6267    1.0000 </r>
       <r>    9.8907    1.0001 </r>
       <r>   11.6968   -0.0000 </r>
       <r>   16.7207    0.0000 </r>
       <r>   18.8904    0.0000 </r>
       <r>   20.7677    0.0000 </r>
       <r>   22.1115    0.0000 </r>
       <r>   25.2364    0.0000 </r>
      </set>
      <set comment="kpoint 27">
       <r>    5.9230    1.0000 </r>
       <r>    6.2336    1.0000 </r>
       <r>    6.4736    1.0000 </r>
       <r>    7.0254    1.0000 </r>
       <r>    7.5505    1.0000 </r>
       <r>    7.9671    1.0000 </r>
       <r>    8.4395    1.0000 </r>
       <r>    9.5920    1.0000 </r>
       <r>    9.6054    1.0000 </r>
       <r>    9.8233    1.0000 </r>
       <r>   13.4339   -0.0000 </r>
       <r>   14.7684   -0.0000 </r>
       <r>   19.8892    0.0000 </r>
       <r>   20.9562    0.0000 </r>
       <r>   21.2437    0.0000 </r>
       <r>   25.1379    0.0000 </r>
      </set>
      <set comment="kpoint 28">
       <r>    6.1565    1.0000 </r>
       <r>    6.4372    1.0000 </r>
       <r>    6.6284    1.0000 </r>
       <r>    6.7765    1.0000 </r>
       <r>    7.5842    1.0000 </r>
       <r>    7.6764    1.0000 </r>
       <r>    8.4899    1.0000 </r>
       <r>    9.4378    1.0000 </r>
       <r>    9.5539    1.0000 </r>
       <r>    9.7717    1.0000 </r>
       <r>   13.8886   -0.0000 </r>
       <r>   16.7959    0.0000 </r>
       <r>   16.9407    0.0000 </r>
       <r>   20.9092    0.0000 </r>
       <r>   22.9375    0.0000 </r>
       <r>   24.0887    0.0000 </r>
      </set>
      <set comment="kpoint 29">
       <r>    2.1248    1.0000 </r>
       <r>    5.0846    1.0000 </r>
       <r>    7.6802    1.0000 </r>
       <r>    7.7853    1.0000 </r>
       <r>    7.7853    1.0000 </r>
       <r>    8.0499    1.0000 </r>
       <r>    8.0499    1.0000 </r>
       <r>    8.6323    1.0000 </r>
       <r>    8.8904    1.0000 </r>
       <r>    8.8904    1.0000 </r>
       <r>    9.6331    1.0000 </r>
       <r>    9.6331    1.0000 </r>
       <r>   19.9993    0.0000 </r>
       <r>   31.5865    0.0000 </r>
       <r>   33.1427    0.0000 </r>
       <r>   34.8390    0.0000 </r>
      </set>
      <set comment="kpoint 30">
       <r>    2.4657    1.0000 </r>
       <r>    5.3396    1.0000 </r>
       <r>    7.6099    1.0000 </r>
       <r>    7.6616    1.0000 </r>
       <r>    7.7315    1.0000 </r>
       <r>    7.9197    1.0000 </r>
       <r>    8.1886    1.0000 </r>
       <r>    8.3111    1.0000 </r>
       <r>    8.8435    1.0000 </r>
       <r>    8.8997    1.0000 </r>
       <r>    9.6536    1.0000 </r>
       <r>   10.3959    0.8528 </r>
       <r>   20.2038    0.0000 </r>
       <r>   30.5934    0.0000 </r>
       <r>   31.9268    0.0000 </r>
       <r>   33.1606    0.0000 </r>
      </set>
      <set comment="kpoint 31">
       <r>    3.4084    1.0000 </r>
       <r>    5.9249    1.0000 </r>
       <r>    6.9477    1.0000 </r>
       <r>    7.3705    1.0000 </r>
       <r>    7.6464    1.0000 </r>
       <r>    8.1692    1.0000 </r>
       <r>    8.1702    1.0000 </r>
       <r>    8.5600    1.0000 </r>
       <r>    8.8645    1.0000 </r>
       <r>    8.9884    1.0000 </r>
       <r>    9.6912    1.0000 </r>
       <r>   11.6005   -0.0000 </r>
       <r>   20.8378    0.0000 </r>
       <r>   26.1243    0.0000 </r>
       <r>   29.9235    0.0000 </r>
       <r>   30.8100    0.0000 </r>
      </set>
      <set comment="kpoint 32">
       <r>    4.5975    1.0000 </r>
       <r>    6.0972    1.0000 </r>
       <r>    6.5126    1.0000 </r>
       <r>    7.2062    1.0000 </r>
       <r>    7.7662    1.0000 </r>
       <r>    8.1601    1.0000 </r>
       <r>    8.4787    1.0000 </r>
       <r>    9.0707    1.0000 </r>
       <r>    9.2366    1.0000 </r>
       <r>    9.2524    1.0000 </r>
       <r>    9.7389    1.0000 </r>
       <r>   12.9052   -0.0000 </r>
       <r>   21.3519    0.0000 </r>
       <r>   22.3567    0.0000 </r>
       <r>   26.2111    0.0000 </r>
       <r>   28.6257    0.0000 </r>
      </set>
      <set comment="kpoint 33">
       <r>    5.2406    1.0000 </r>
       <r>    5.8486    1.0000 </r>
       <r>    6.5092    1.0000 </r>
       <r>    6.9262    1.0000 </r>
       <r>    8.0499    1.0000 </r>
       <r>    8.2350    1.0000 </r>
       <r>    9.3009    1.0000 </r>
       <r>    9.4265    1.0000 </r>
       <r>    9.6874    1.0000 </r>
       <r>    9.8654    1.0000 </r>
       <r>   10.0638    1.0051 </r>
       <r>   14.0219   -0.0000 </r>
       <r>   18.5186    0.0000 </r>
       <r>   21.5060    0.0000 </r>
       <r>   24.8775    0.0000 </r>
       <r>   27.1550    0.0000 </r>
      </set>
      <set comment="kpoint 34">
       <r>    5.3143    1.0000 </r>
       <r>    5.7407    1.0000 </r>
       <r>    6.6628    1.0000 </r>
       <r>    6.7308    1.0000 </r>
       <r>    8.0022    1.0000 </r>
       <r>    8.3938    1.0000 </r>
       <r>    9.4997    1.0000 </r>
       <r>    9.5908    1.0000 </r>
       <r>    9.8907    1.0001 </r>
       <r>    9.9728    1.0008 </r>
       <r>   11.4727   -0.0000 </r>
       <r>   13.5257   -0.0000 </r>
       <r>   18.8365    0.0000 </r>
       <r>   18.9800    0.0000 </r>
       <r>   26.6072    0.0000 </r>
       <r>   26.6277    0.0000 </r>
      </set>
      <set comment="kpoint 35">
       <r>    3.1122    1.0000 </r>
       <r>    5.7839    1.0000 </r>
       <r>    7.1262    1.0000 </r>
       <r>    7.3899    1.0000 </r>
       <r>    7.7051    1.0000 </r>
       <r>    8.0997    1.0000 </r>
       <r>    8.1475    1.0000 </r>
       <r>    8.4384    1.0000 </r>
       <r>    8.9041    1.0000 </r>
       <r>    8.9152    1.0000 </r>
       <r>    9.6785    1.0000 </r>
       <r>   11.2739   -0.0000 </r>
       <r>   20.6303    0.0000 </r>
       <r>   28.2271    0.0000 </r>
       <r>   29.0199    0.0000 </r>
       <r>   32.0153    0.0000 </r>
      </set>
      <set comment="kpoint 36">
       <r>    4.2259    1.0000 </r>
       <r>    6.2960    1.0000 </r>
       <r>    6.5908    1.0000 </r>
       <r>    7.1577    1.0000 </r>
       <r>    7.6189    1.0000 </r>
       <r>    8.0535    1.0000 </r>
       <r>    8.2248    1.0000 </r>
       <r>    8.7996    1.0000 </r>
       <r>    9.1760    1.0000 </r>
       <r>    9.2220    1.0000 </r>
       <r>    9.7593    1.0000 </r>
       <r>   12.4808   -0.0000 </r>
       <r>   21.4871    0.0000 </r>
       <r>   24.0891    0.0000 </r>
       <r>   26.7298    0.0000 </r>
       <r>   28.4061    0.0000 </r>
      </set>
      <set comment="kpoint 37">
       <r>    5.2218    1.0000 </r>
       <r>    6.1144    1.0000 </r>
       <r>    6.4408    1.0000 </r>
       <r>    7.0918    1.0000 </r>
       <r>    7.7695    1.0000 </r>
       <r>    8.1751    1.0000 </r>
       <r>    8.4653    1.0000 </r>
       <r>    9.1571    1.0000 </r>
       <r>    9.4604    1.0000 </r>
       <r>    9.7136    1.0000 </r>
       <r>   10.2609    1.0343 </r>
       <r>   13.8702   -0.0000 </r>
       <r>   19.9867    0.0000 </r>
       <r>   22.5701    0.0000 </r>
       <r>   24.7149    0.0000 </r>
       <r>   25.6745    0.0000 </r>
      </set>
      <set comment="kpoint 38">
       <r>    5.4555    1.0000 </r>
       <r>    5.9361    1.0000 </r>
       <r>    6.6222    1.0000 </r>
       <r>    6.8636    1.0000 </r>
       <r>    7.7383    1.0000 </r>
       <r>    8.4772    1.0000 </r>
       <r>    8.9147    1.0000 </r>
       <r>    9.4122    1.0000 </r>
       <r>    9.7200    1.0000 </r>
       <r>    9.9464    1.0004 </r>
       <r>   11.6641   -0.0000 </r>
       <r>   14.3087   -0.0000 </r>
       <r>   18.2990    0.0000 </r>
       <r>   20.3553    0.0000 </r>
       <r>   24.4067    0.0000 </r>
       <r>   26.0532    0.0000 </r>
      </set>
      <set comment="kpoint 39">
       <r>    5.2809    1.0000 </r>
       <r>    6.2271    1.0000 </r>
       <r>    6.8008    1.0000 </r>
       <r>    6.8115    1.0000 </r>
       <r>    7.7140    1.0000 </r>
       <r>    7.8781    1.0000 </r>
       <r>    8.1375    1.0000 </r>
       <r>    8.9924    1.0000 </r>
       <r>    9.3911    1.0000 </r>
       <r>    9.7378    1.0000 </r>
       <r>   10.3984    0.8454 </r>
       <r>   13.8361   -0.0000 </r>
       <r>   22.1927    0.0000 </r>
       <r>   22.1965    0.0000 </r>
       <r>   23.1710    0.0000 </r>
       <r>   26.8523    0.0000 </r>
      </set>
      <set comment="kpoint 40">
       <r>    5.8453    1.0000 </r>
       <r>    6.2954    1.0000 </r>
       <r>    6.5035    1.0000 </r>
       <r>    7.0180    1.0000 </r>
       <r>    7.5821    1.0000 </r>
       <r>    7.9770    1.0000 </r>
       <r>    8.3745    1.0000 </r>
       <r>    9.2085    1.0000 </r>
       <r>    9.4328    1.0000 </r>
       <r>    9.9672    1.0007 </r>
       <r>   11.8889   -0.0000 </r>
       <r>   15.4051   -0.0000 </r>
       <r>   18.9382    0.0000 </r>
       <r>   21.2897    0.0000 </r>
       <r>   22.5159    0.0000 </r>
       <r>   25.2692    0.0000 </r>
      </set>
      <set comment="kpoint 41">
       <r>    5.8317    1.0000 </r>
       <r>    6.3425    1.0000 </r>
       <r>    6.7077    1.0000 </r>
       <r>    6.8731    1.0000 </r>
       <r>    7.4375    1.0000 </r>
       <r>    8.1546    1.0000 </r>
       <r>    8.5530    1.0000 </r>
       <r>    9.2879    1.0000 </r>
       <r>    9.6132    1.0000 </r>
       <r>    9.8758    1.0001 </r>
       <r>   13.6885   -0.0000 </r>
       <r>   14.7419   -0.0000 </r>
       <r>   19.2418    0.0000 </r>
       <r>   19.6085    0.0000 </r>
       <r>   21.2594    0.0000 </r>
       <r>   25.3969    0.0000 </r>
      </set>
      <set comment="kpoint 42">
       <r>    6.2251    1.0000 </r>
       <r>    6.4600    1.0000 </r>
       <r>    6.7533    1.0000 </r>
       <r>    6.7696    1.0000 </r>
       <r>    7.5543    1.0000 </r>
       <r>    7.6615    1.0000 </r>
       <r>    8.4727    1.0000 </r>
       <r>    9.2129    1.0000 </r>
       <r>    9.5295    1.0000 </r>
       <r>    9.8217    1.0000 </r>
       <r>   14.2201   -0.0000 </r>
       <r>   16.5973    0.0000 </r>
       <r>   17.3773    0.0000 </r>
       <r>   19.8190    0.0000 </r>
       <r>   21.9412    0.0000 </r>
       <r>   22.6429    0.0000 </r>
      </set>
      <set comment="kpoint 43">
       <r>    2.8551    1.0000 </r>
       <r>    4.5913    1.0000 </r>
       <r>    7.5584    1.0000 </r>
       <r>    7.7718    1.0000 </r>
       <r>    7.7718    1.0000 </r>
       <r>    7.8102    1.0000 </r>
       <r>    7.9238    1.0000 </r>
       <r>    7.9238    1.0000 </r>
       <r>    9.1403    1.0000 </r>
       <r>    9.1403    1.0000 </r>
       <r>    9.5342    1.0000 </r>
       <r>    9.5342    1.0000 </r>
       <r>   22.6686    0.0000 </r>
       <r>   28.6778    0.0000 </r>
       <r>   33.1331    0.0000 </r>
       <r>   34.0797    0.0000 </r>
      </set>
      <set comment="kpoint 44">
       <r>    3.1781    1.0000 </r>
       <r>    4.8732    1.0000 </r>
       <r>    7.3619    1.0000 </r>
       <r>    7.4945    1.0000 </r>
       <r>    7.6880    1.0000 </r>
       <r>    7.9043    1.0000 </r>
       <r>    8.0416    1.0000 </r>
       <r>    8.0613    1.0000 </r>
       <r>    9.1091    1.0000 </r>
       <r>    9.1890    1.0000 </r>
       <r>    9.5359    1.0000 </r>
       <r>    9.8584    1.0000 </r>
       <r>   22.9032    0.0000 </r>
       <r>   28.9266    0.0000 </r>
       <r>   31.1230    0.0000 </r>
       <r>   32.5045    0.0000 </r>
      </set>
      <set comment="kpoint 45">
       <r>    4.0383    1.0000 </r>
       <r>    5.5287    1.0000 </r>
       <r>    6.8790    1.0000 </r>
       <r>    7.3265    1.0000 </r>
       <r>    7.5682    1.0000 </r>
       <r>    7.9868    1.0000 </r>
       <r>    8.2019    1.0000 </r>
       <r>    8.4256    1.0000 </r>
       <r>    9.1024    1.0000 </r>
       <r>    9.3556    1.0000 </r>
       <r>    9.5436    1.0000 </r>
       <r>   10.5613    0.2176 </r>
       <r>   23.5751    0.0000 </r>
       <r>   26.7741    0.0000 </r>
       <r>   28.5983    0.0000 </r>
       <r>   29.9191    0.0000 </r>
      </set>
      <set comment="kpoint 46">
       <r>    4.9640    1.0000 </r>
       <r>    5.8104    1.0000 </r>
       <r>    6.6687    1.0000 </r>
       <r>    7.1181    1.0000 </r>
       <r>    7.8930    1.0000 </r>
       <r>    8.3587    1.0000 </r>
       <r>    8.4039    1.0000 </r>
       <r>    8.8549    1.0000 </r>
       <r>    9.3422    1.0000 </r>
       <r>    9.6133    1.0000 </r>
       <r>    9.6242    1.0000 </r>
       <r>   11.4510   -0.0000 </r>
       <r>   22.3924    0.0000 </r>
       <r>   23.8888    0.0000 </r>
       <r>   25.6924    0.0000 </r>
       <r>   29.6474    0.0000 </r>
      </set>
      <set comment="kpoint 47">
       <r>    5.2955    1.0000 </r>
       <r>    5.7029    1.0000 </r>
       <r>    6.5791    1.0000 </r>
       <r>    6.8894    1.0000 </r>
       <r>    8.3363    1.0000 </r>
       <r>    8.5599    1.0000 </r>
       <r>    9.0777    1.0000 </r>
       <r>    9.6284    1.0000 </r>
       <r>    9.7280    1.0000 </r>
       <r>    9.8252    1.0000 </r>
       <r>   10.2107    1.0319 </r>
       <r>   12.5486   -0.0000 </r>
       <r>   18.9987    0.0000 </r>
       <r>   20.6436    0.0000 </r>
       <r>   26.9937    0.0000 </r>
       <r>   28.2481    0.0000 </r>
      </set>
      <set comment="kpoint 48">
       <r>    5.3040    1.0000 </r>
       <r>    5.6470    1.0000 </r>
       <r>    6.5626    1.0000 </r>
       <r>    6.7875    1.0000 </r>
       <r>    8.3119    1.0000 </r>
       <r>    8.8018    1.0000 </r>
       <r>    9.1181    1.0000 </r>
       <r>    9.9090    1.0002 </r>
       <r>    9.9342    1.0003 </r>
       <r>    9.9539    1.0005 </r>
       <r>   11.4700   -0.0000 </r>
       <r>   12.9417   -0.0000 </r>
       <r>   18.1839    0.0000 </r>
       <r>   18.2197    0.0000 </r>
       <r>   27.7472    0.0000 </r>
       <r>   28.8087    0.0000 </r>
      </set>
      <set comment="kpoint 49">
       <r>    3.7771    1.0000 </r>
       <r>    5.3631    1.0000 </r>
       <r>    6.9836    1.0000 </r>
       <r>    7.3818    1.0000 </r>
       <r>    7.5517    1.0000 </r>
       <r>    7.9378    1.0000 </r>
       <r>    8.1482    1.0000 </r>
       <r>    8.3240    1.0000 </r>
       <r>    9.1291    1.0000 </r>
       <r>    9.2664    1.0000 </r>
       <r>    9.5576    1.0000 </r>
       <r>   10.3595    0.9417 </r>
       <r>   23.3693    0.0000 </r>
       <r>   28.7861    0.0000 </r>
       <r>   29.3372    0.0000 </r>
       <r>   29.5974    0.0000 </r>
      </set>
      <set comment="kpoint 50">
       <r>    4.7309    1.0000 </r>
       <r>    5.9012    1.0000 </r>
       <r>    6.7462    1.0000 </r>
       <r>    7.2165    1.0000 </r>
       <r>    7.5003    1.0000 </r>
       <r>    7.8739    1.0000 </r>
       <r>    8.3336    1.0000 </r>
       <r>    8.7238    1.0000 </r>
       <r>    9.3419    1.0000 </r>
       <r>    9.4714    1.0000 </r>
       <r>    9.7137    1.0000 </r>
       <r>   11.1607   -0.0000 </r>
       <r>   24.0723    0.0000 </r>
       <r>   24.8619    0.0000 </r>
       <r>   26.7466    0.0000 </r>
       <r>   27.8872    0.0000 </r>
      </set>
      <set comment="kpoint 51">
       <r>    5.3826    1.0000 </r>
       <r>    5.8925    1.0000 </r>
       <r>    6.6486    1.0000 </r>
       <r>    7.0883    1.0000 </r>
       <r>    7.8826    1.0000 </r>
       <r>    8.2676    1.0000 </r>
       <r>    8.5634    1.0000 </r>
       <r>    8.9441    1.0000 </r>
       <r>    9.5616    1.0000 </r>
       <r>    9.8352    1.0000 </r>
       <r>   10.4232    0.7650 </r>
       <r>   12.3200   -0.0000 </r>
       <r>   20.6990    0.0000 </r>
       <r>   22.5301    0.0000 </r>
       <r>   25.8265    0.0000 </r>
       <r>   26.7233    0.0000 </r>
      </set>
      <set comment="kpoint 52">
       <r>    5.4620    1.0000 </r>
       <r>    5.8257    1.0000 </r>
       <r>    6.6065    1.0000 </r>
       <r>    6.9352    1.0000 </r>
       <r>    7.9524    1.0000 </r>
       <r>    8.7600    1.0000 </r>
       <r>    8.9096    1.0000 </r>
       <r>    9.2614    1.0000 </r>
       <r>    9.7242    1.0000 </r>
       <r>    9.9630    1.0006 </r>
       <r>   11.9094   -0.0000 </r>
       <r>   13.4391   -0.0000 </r>
       <r>   18.1804    0.0000 </r>
       <r>   19.3396    0.0000 </r>
       <r>   25.3580    0.0000 </r>
       <r>   27.7425    0.0000 </r>
      </set>
      <set comment="kpoint 53">
       <r>    5.5252    1.0000 </r>
       <r>    6.0420    1.0000 </r>
       <r>    6.9689    1.0000 </r>
       <r>    7.0235    1.0000 </r>
       <r>    7.6254    1.0000 </r>
       <r>    7.6423    1.0000 </r>
       <r>    8.2686    1.0000 </r>
       <r>    8.8512    1.0000 </r>
       <r>    9.5708    1.0000 </r>
       <r>    9.8436    1.0000 </r>
       <r>   10.5817    0.1529 </r>
       <r>   12.3139   -0.0000 </r>
       <r>   22.8716    0.0000 </r>
       <r>   23.3543    0.0000 </r>
       <r>   24.4151    0.0000 </r>
       <r>   25.7699    0.0000 </r>
      </set>
      <set comment="kpoint 54">
       <r>    5.8658    1.0000 </r>
       <r>    6.1356    1.0000 </r>
       <r>    6.7445    1.0000 </r>
       <r>    7.2588    1.0000 </r>
       <r>    7.4473    1.0000 </r>
       <r>    7.9550    1.0000 </r>
       <r>    8.4718    1.0000 </r>
       <r>    8.8846    1.0000 </r>
       <r>    9.6238    1.0000 </r>
       <r>    9.9897    1.0012 </r>
       <r>   12.2688   -0.0000 </r>
       <r>   14.0470   -0.0000 </r>
       <r>   19.4874    0.0000 </r>
       <r>   21.2301    0.0000 </r>
       <r>   22.3680    0.0000 </r>
       <r>   24.4293    0.0000 </r>
      </set>
      <set comment="kpoint 55">
       <r>    5.8609    1.0000 </r>
       <r>    6.2354    1.0000 </r>
       <r>    6.7128    1.0000 </r>
       <r>    7.2249    1.0000 </r>
       <r>    7.3351    1.0000 </r>
       <r>    8.1279    1.0000 </r>
       <r>    8.7061    1.0000 </r>
       <r>    8.9783    1.0000 </r>
       <r>    9.6780    1.0000 </r>
       <r>    9.8759    1.0001 </r>
       <r>   14.0461   -0.0000 </r>
       <r>   14.6453   -0.0000 </r>
       <r>   18.5055    0.0000 </r>
       <r>   18.6341    0.0000 </r>
       <r>   21.9341    0.0000 </r>
       <r>   24.1063    0.0000 </r>
      </set>
      <set comment="kpoint 56">
       <r>    6.3054    1.0000 </r>
       <r>    6.4322    1.0000 </r>
       <r>    6.8277    1.0000 </r>
       <r>    6.9275    1.0000 </r>
       <r>    7.4603    1.0000 </r>
       <r>    7.6508    1.0000 </r>
       <r>    8.4883    1.0000 </r>
       <r>    8.8517    1.0000 </r>
       <r>    9.6537    1.0000 </r>
       <r>    9.8348    1.0000 </r>
       <r>   14.7112   -0.0000 </r>
       <r>   16.0609    0.0000 </r>
       <r>   18.0523    0.0000 </r>
       <r>   19.3275    0.0000 </r>
       <r>   20.9174    0.0000 </r>
       <r>   21.4511    0.0000 </r>
      </set>
      <set comment="kpoint 57">
       <r>    3.7519    1.0000 </r>
       <r>    3.7519    1.0000 </r>
       <r>    7.5294    1.0000 </r>
       <r>    7.5294    1.0000 </r>
       <r>    7.8214    1.0000 </r>
       <r>    7.8214    1.0000 </r>
       <r>    7.8214    1.0000 </r>
       <r>    7.8214    1.0000 </r>
       <r>    9.3660    1.0000 </r>
       <r>    9.3660    1.0000 </r>
       <r>    9.3660    1.0000 </r>
       <r>    9.3660    1.0000 </r>
       <r>   25.6121    0.0000 </r>
       <r>   25.6121    0.0000 </r>
       <r>   33.4827    0.0000 </r>
       <r>   33.4827    0.0000 </r>
      </set>
      <set comment="kpoint 58">
       <r>    4.0533    1.0000 </r>
       <r>    4.0533    1.0000 </r>
       <r>    7.3307    1.0000 </r>
       <r>    7.3307    1.0000 </r>
       <r>    7.8280    1.0000 </r>
       <r>    7.8280    1.0000 </r>
       <r>    7.9564    1.0000 </r>
       <r>    7.9564    1.0000 </r>
       <r>    9.3499    1.0000 </r>
       <r>    9.3499    1.0000 </r>
       <r>    9.5018    1.0000 </r>
       <r>    9.5018    1.0000 </r>
       <r>   25.8602    0.0000 </r>
       <r>   25.8602    0.0000 </r>
       <r>   31.7571    0.0000 </r>
       <r>   31.7571    0.0000 </r>
      </set>
      <set comment="kpoint 59">
       <r>    4.8030    1.0000 </r>
       <r>    4.8030    1.0000 </r>
       <r>    7.0685    1.0000 </r>
       <r>    7.0685    1.0000 </r>
       <r>    7.7598    1.0000 </r>
       <r>    7.7598    1.0000 </r>
       <r>    8.2938    1.0000 </r>
       <r>    8.2938    1.0000 </r>
       <r>    9.3404    1.0000 </r>
       <r>    9.3404    1.0000 </r>
       <r>    9.8507    1.0000 </r>
       <r>    9.8507    1.0000 </r>
       <r>   26.4155    0.0000 </r>
       <r>   26.4155    0.0000 </r>
       <r>   27.8598    0.0000 </r>
       <r>   27.8598    0.0000 </r>
      </set>
      <set comment="kpoint 60">
       <r>    5.3916    1.0000 </r>
       <r>    5.3916    1.0000 </r>
       <r>    6.9109    1.0000 </r>
       <r>    6.9109    1.0000 </r>
       <r>    8.1605    1.0000 </r>
       <r>    8.1605    1.0000 </r>
       <r>    8.6022    1.0000 </r>
       <r>    8.6022    1.0000 </r>
       <r>    9.4746    1.0000 </r>
       <r>    9.4746    1.0000 </r>
       <r>   10.3537    0.9528 </r>
       <r>   10.3537    0.9528 </r>
       <r>   23.2896    0.0000 </r>
       <r>   23.2896    0.0000 </r>
       <r>   27.9834    0.0000 </r>
       <r>   27.9834    0.0000 </r>
      </set>
      <set comment="kpoint 61">
       <r>    5.4671    1.0000 </r>
       <r>    5.4671    1.0000 </r>
       <r>    6.7470    1.0000 </r>
       <r>    6.7470    1.0000 </r>
       <r>    8.6943    1.0000 </r>
       <r>    8.6943    1.0000 </r>
       <r>    9.0989    1.0000 </r>
       <r>    9.0989    1.0000 </r>
       <r>    9.7768    1.0000 </r>
       <r>    9.7768    1.0000 </r>
       <r>   11.2657   -0.0000 </r>
       <r>   11.2657   -0.0000 </r>
       <r>   19.7249    0.0000 </r>
       <r>   19.7249    0.0000 </r>
       <r>   29.3812    0.0000 </r>
       <r>   29.3813    0.0000 </r>
      </set>
      <set comment="kpoint 62">
       <r>    5.4386    1.0000 </r>
       <r>    5.4386    1.0000 </r>
       <r>    6.6763    1.0000 </r>
       <r>    6.6763    1.0000 </r>
       <r>    8.7002    1.0000 </r>
       <r>    8.7002    1.0000 </r>
       <r>    9.4482    1.0000 </r>
       <r>    9.4482    1.0000 </r>
       <r>    9.9314    1.0003 </r>
       <r>    9.9314    1.0003 </r>
       <r>   12.1587   -0.0000 </r>
       <r>   12.1587   -0.0000 </r>
       <r>   17.9619    0.0000 </r>
       <r>   17.9619    0.0000 </r>
       <r>   29.1875    0.0000 </r>
       <r>   29.1875    0.0000 </r>
      </set>
      <set comment="kpoint 63">
       <r>    4.5913    1.0000 </r>
       <r>    4.5913    1.0000 </r>
       <r>    7.1291    1.0000 </r>
       <r>    7.1291    1.0000 </r>
       <r>    7.7241    1.0000 </r>
       <r>    7.7241    1.0000 </r>
       <r>    8.2150    1.0000 </r>
       <r>    8.2150    1.0000 </r>
       <r>    9.3471    1.0000 </r>
       <r>    9.3471    1.0000 </r>
       <r>    9.7451    1.0000 </r>
       <r>    9.7451    1.0000 </r>
       <r>   26.3267    0.0000 </r>
       <r>   26.3267    0.0000 </r>
       <r>   29.4703    0.0000 </r>
       <r>   29.4703    0.0000 </r>
      </set>
      <set comment="kpoint 64">
       <r>    5.3253    1.0000 </r>
       <r>    5.3253    1.0000 </r>
       <r>    7.0135    1.0000 </r>
       <r>    7.0135    1.0000 </r>
       <r>    7.6462    1.0000 </r>
       <r>    7.6462    1.0000 </r>
       <r>    8.5217    1.0000 </r>
       <r>    8.5217    1.0000 </r>
       <r>    9.5028    1.0000 </r>
       <r>    9.5028    1.0000 </r>
       <r>   10.1942    1.0286 </r>
       <r>   10.1942    1.0286 </r>
       <r>   25.4591    0.0000 </r>
       <r>   25.4591    0.0000 </r>
       <r>   27.3670    0.0000 </r>
       <r>   27.3670    0.0000 </r>
      </set>
      <set comment="kpoint 65">
       <r>    5.6174    1.0000 </r>
       <r>    5.6174    1.0000 </r>
       <r>    6.9011    1.0000 </r>
       <r>    6.9011    1.0000 </r>
       <r>    8.1586    1.0000 </r>
       <r>    8.1586    1.0000 </r>
       <r>    8.6656    1.0000 </r>
       <r>    8.6656    1.0000 </r>
       <r>    9.7872    1.0000 </r>
       <r>    9.7872    1.0000 </r>
       <r>   11.1151   -0.0000 </r>
       <r>   11.1151   -0.0000 </r>
       <r>   21.5712    0.0000 </r>
       <r>   21.5712    0.0000 </r>
       <r>   27.1476    0.0000 </r>
       <r>   27.1476    0.0000 </r>
      </set>
      <set comment="kpoint 66">
       <r>    5.6047    1.0000 </r>
       <r>    5.6047    1.0000 </r>
       <r>    6.7824    1.0000 </r>
       <r>    6.7824    1.0000 </r>
       <r>    8.3993    1.0000 </r>
       <r>    8.3993    1.0000 </r>
       <r>    9.1263    1.0000 </r>
       <r>    9.1263    1.0000 </r>
       <r>    9.8402    1.0000 </r>
       <r>    9.8402    1.0000 </r>
       <r>   12.5496   -0.0000 </r>
       <r>   12.5496   -0.0000 </r>
       <r>   18.5756    0.0000 </r>
       <r>   18.5756    0.0000 </r>
       <r>   26.4954    0.0000 </r>
       <r>   26.4954    0.0000 </r>
      </set>
      <set comment="kpoint 67">
       <r>    5.7953    1.0000 </r>
       <r>    5.7953    1.0000 </r>
       <r>    7.1245    1.0000 </r>
       <r>    7.1245    1.0000 </r>
       <r>    7.5086    1.0000 </r>
       <r>    7.5086    1.0000 </r>
       <r>    8.5280    1.0000 </r>
       <r>    8.5280    1.0000 </r>
       <r>    9.8378    1.0000 </r>
       <r>    9.8378    1.0000 </r>
       <r>   11.1715   -0.0000 </r>
       <r>   11.1715   -0.0000 </r>
       <r>   23.6676    0.0000 </r>
       <r>   23.6676    0.0000 </r>
       <r>   24.5710    0.0000 </r>
       <r>   24.5710    0.0000 </r>
      </set>
      <set comment="kpoint 68">
       <r>    5.9719    1.0000 </r>
       <r>    5.9719    1.0000 </r>
       <r>    7.0291    1.0000 </r>
       <r>    7.0291    1.0000 </r>
       <r>    7.7440    1.0000 </r>
       <r>    7.7440    1.0000 </r>
       <r>    8.6125    1.0000 </r>
       <r>    8.6125    1.0000 </r>
       <r>    9.8745    1.0001 </r>
       <r>    9.8745    1.0001 </r>
       <r>   12.9690   -0.0000 </r>
       <r>   12.9690   -0.0000 </r>
       <r>   20.3021    0.0000 </r>
       <r>   20.3021    0.0000 </r>
       <r>   23.2721    0.0000 </r>
       <r>   23.2721    0.0000 </r>
      </set>
      <set comment="kpoint 69">
       <r>    6.0056    1.0000 </r>
       <r>    6.0056    1.0000 </r>
       <r>    6.9623    1.0000 </r>
       <r>    6.9623    1.0000 </r>
       <r>    7.7968    1.0000 </r>
       <r>    7.7968    1.0000 </r>
       <r>    8.8272    1.0000 </r>
       <r>    8.8272    1.0000 </r>
       <r>    9.7894    1.0000 </r>
       <r>    9.7894    1.0000 </r>
       <r>   14.4074   -0.0000 </r>
       <r>   14.4074   -0.0000 </r>
       <r>   18.2452    0.0000 </r>
       <r>   18.2452    0.0000 </r>
       <r>   22.9164    0.0000 </r>
       <r>   22.9164    0.0000 </r>
      </set>
      <set comment="kpoint 70">
       <r>    6.3758    1.0000 </r>
       <r>    6.3758    1.0000 </r>
       <r>    6.9353    1.0000 </r>
       <r>    6.9353    1.0000 </r>
       <r>    7.5305    1.0000 </r>
       <r>    7.5305    1.0000 </r>
       <r>    8.5975    1.0000 </r>
       <r>    8.5975    1.0000 </r>
       <r>    9.7743    1.0000 </r>
       <r>    9.7743    1.0000 </r>
       <r>   15.3498   -0.0000 </r>
       <r>   15.3498   -0.0000 </r>
       <r>   18.8254    0.0000 </r>
       <r>   18.8254    0.0000 </r>
       <r>   20.7261    0.0000 </r>
       <r>   20.7261    0.0000 </r>
      </set>
     </set>
     <set comment="spin 2">
      <set comment="kpoint 1">
       <r>    1.5203    1.0000 </r>
       <r>    6.2549    1.0000 </r>
       <r>    9.4976    1.0000 </r>
       <r>    9.5675    1.0000 </r>
       <r>    9.5675    1.0000 </r>
       <r>    9.9359    1.0003 </r>
       <r>    9.9359    1.0003 </r>
       <r>   10.3320    0.9872 </r>
       <r>   10.3939    0.8584 </r>
       <r>   10.3939    0.8584 </r>
       <r>   11.6200   -0.0000 </r>
       <r>   11.6200   -0.0000 </r>
       <r>   18.0082    0.0000 </r>
       <r>   32.4891    0.0000 </r>
       <r>   35.7514    0.0000 </r>
       <r>   35.8207    0.0000 </r>
      </set>
      <set comment="kpoint 2">
       <r>    1.8775    1.0000 </r>
       <r>    6.4966    1.0000 </r>
       <r>    9.2014    1.0000 </r>
       <r>    9.4739    1.0000 </r>
       <r>    9.7515    1.0000 </r>
       <r>    9.7635    1.0000 </r>
       <r>    9.8650    1.0000 </r>
       <r>   10.0993    1.0093 </r>
       <r>   10.2747    1.0313 </r>
       <r>   10.2992    1.0195 </r>
       <r>   11.6696   -0.0000 </r>
       <r>   12.7867   -0.0000 </r>
       <r>   18.0359    0.0000 </r>
       <r>   30.4091    0.0000 </r>
       <r>   33.1527    0.0000 </r>
       <r>   33.2235    0.0000 </r>
      </set>
      <set comment="kpoint 3">
       <r>    2.8996    1.0000 </r>
       <r>    7.0578    1.0000 </r>
       <r>    8.4817    1.0000 </r>
       <r>    8.7745    1.0000 </r>
       <r>    9.5500    1.0000 </r>
       <r>   10.0026    1.0015 </r>
       <r>   10.0643    1.0052 </r>
       <r>   10.2399    1.0354 </r>
       <r>   10.2603    1.0344 </r>
       <r>   10.5444    0.2780 </r>
       <r>   11.7611   -0.0000 </r>
       <r>   14.6821   -0.0000 </r>
       <r>   18.1545    0.0000 </r>
       <r>   26.0012    0.0000 </r>
       <r>   30.3749    0.0000 </r>
       <r>   32.0860    0.0000 </r>
      </set>
      <set comment="kpoint 4">
       <r>    4.4011    1.0000 </r>
       <r>    7.3465    1.0000 </r>
       <r>    7.7680    1.0000 </r>
       <r>    8.5309    1.0000 </r>
       <r>    9.4940    1.0000 </r>
       <r>    9.7132    1.0000 </r>
       <r>    9.7803    1.0000 </r>
       <r>   10.9145   -0.0053 </r>
       <r>   10.9504   -0.0027 </r>
       <r>   11.1397   -0.0000 </r>
       <r>   11.8308   -0.0000 </r>
       <r>   16.8558    0.0000 </r>
       <r>   18.3226    0.0000 </r>
       <r>   22.0096    0.0000 </r>
       <r>   28.0297    0.0000 </r>
       <r>   29.1092    0.0000 </r>
      </set>
      <set comment="kpoint 5">
       <r>    5.9003    1.0000 </r>
       <r>    7.1322    1.0000 </r>
       <r>    7.3486    1.0000 </r>
       <r>    8.5514    1.0000 </r>
       <r>    9.5024    1.0000 </r>
       <r>    9.5546    1.0000 </r>
       <r>    9.7619    1.0000 </r>
       <r>   11.5490   -0.0000 </r>
       <r>   11.6924   -0.0000 </r>
       <r>   11.8667   -0.0000 </r>
       <r>   11.9808   -0.0000 </r>
       <r>   16.9296    0.0000 </r>
       <r>   19.1764    0.0000 </r>
       <r>   20.7051    0.0000 </r>
       <r>   25.8674    0.0000 </r>
       <r>   26.4167    0.0000 </r>
      </set>
      <set comment="kpoint 6">
       <r>    6.6084    1.0000 </r>
       <r>    6.8975    1.0000 </r>
       <r>    7.2112    1.0000 </r>
       <r>    8.6840    1.0000 </r>
       <r>    9.4260    1.0000 </r>
       <r>    9.4692    1.0000 </r>
       <r>    9.8914    1.0001 </r>
       <r>   11.7751   -0.0000 </r>
       <r>   11.8770   -0.0000 </r>
       <r>   11.9395   -0.0000 </r>
       <r>   13.1492   -0.0000 </r>
       <r>   14.9533   -0.0000 </r>
       <r>   20.7700    0.0000 </r>
       <r>   21.4198    0.0000 </r>
       <r>   23.9743    0.0000 </r>
       <r>   25.2917    0.0000 </r>
      </set>
      <set comment="kpoint 7">
       <r>    2.5689    1.0000 </r>
       <r>    6.9128    1.0000 </r>
       <r>    8.7390    1.0000 </r>
       <r>    8.8581    1.0000 </r>
       <r>    9.6563    1.0000 </r>
       <r>    9.9344    1.0003 </r>
       <r>   10.0020    1.0015 </r>
       <r>   10.1249    1.0135 </r>
       <r>   10.2797    1.0296 </r>
       <r>   10.4589    0.6289 </r>
       <r>   11.7172   -0.0000 </r>
       <r>   14.1500   -0.0000 </r>
       <r>   18.1157    0.0000 </r>
       <r>   28.0531    0.0000 </r>
       <r>   28.8305    0.0000 </r>
       <r>   34.5342    0.0000 </r>
      </set>
      <set comment="kpoint 8">
       <r>    3.8474    1.0000 </r>
       <r>    7.4242    1.0000 </r>
       <r>    8.0261    1.0000 </r>
       <r>    8.4440    1.0000 </r>
       <r>    9.4933    1.0000 </r>
       <r>    9.5972    1.0000 </r>
       <r>   10.0679    1.0055 </r>
       <r>   10.3875    0.8763 </r>
       <r>   10.7717   -0.0314 </r>
       <r>   11.0967   -0.0001 </r>
       <r>   11.7650   -0.0000 </r>
       <r>   16.0881    0.0000 </r>
       <r>   18.3519    0.0000 </r>
       <r>   23.9882    0.0000 </r>
       <r>   26.5237    0.0000 </r>
       <r>   31.0180    0.0000 </r>
      </set>
      <set comment="kpoint 9">
       <r>    5.4132    1.0000 </r>
       <r>    7.4045    1.0000 </r>
       <r>    7.5362    1.0000 </r>
       <r>    8.3438    1.0000 </r>
       <r>    9.3781    1.0000 </r>
       <r>    9.6414    1.0000 </r>
       <r>    9.7605    1.0000 </r>
       <r>   10.9977   -0.0010 </r>
       <r>   11.4232   -0.0000 </r>
       <r>   11.7969   -0.0000 </r>
       <r>   11.9138   -0.0000 </r>
       <r>   18.2531    0.0000 </r>
       <r>   18.3257    0.0000 </r>
       <r>   20.8629    0.0000 </r>
       <r>   24.9011    0.0000 </r>
       <r>   27.5822    0.0000 </r>
      </set>
      <set comment="kpoint 10">
       <r>    6.5811    1.0000 </r>
       <r>    7.1321    1.0000 </r>
       <r>    7.2945    1.0000 </r>
       <r>    8.4647    1.0000 </r>
       <r>    9.3285    1.0000 </r>
       <r>    9.4936    1.0000 </r>
       <r>    9.8917    1.0001 </r>
       <r>   11.6180   -0.0000 </r>
       <r>   11.7730   -0.0000 </r>
       <r>   11.8098   -0.0000 </r>
       <r>   13.0320   -0.0000 </r>
       <r>   15.9072   -0.0000 </r>
       <r>   20.5756    0.0000 </r>
       <r>   21.3337    0.0000 </r>
       <r>   23.8572    0.0000 </r>
       <r>   24.7353    0.0000 </r>
      </set>
      <set comment="kpoint 11">
       <r>    5.2397    1.0000 </r>
       <r>    7.6596    1.0000 </r>
       <r>    7.7633    1.0000 </r>
[...]
       <r>    26.5804     0.2922    14.9684 </r>
       <r>    26.7081     0.4054    15.0202 </r>
       <r>    26.8358     0.4532    15.0781 </r>
       <r>    26.9636     0.2318    15.1077 </r>
       <r>    27.0913     0.1521    15.1271 </r>
       <r>    27.2190     0.2330    15.1569 </r>
       <r>    27.3468     0.2279    15.1860 </r>
       <r>    27.4745     0.1259    15.2021 </r>
       <r>    27.6022     0.0764    15.2118 </r>
       <r>    27.7299     0.2343    15.2418 </r>
       <r>    27.8577     0.4166    15.2950 </r>
       <r>    27.9854     0.3734    15.3427 </r>
       <r>    28.1131     0.1994    15.3682 </r>
       <r>    28.2409     0.1723    15.3902 </r>
       <r>    28.3686     0.2135    15.4174 </r>
       <r>    28.4963     0.2147    15.4449 </r>
       <r>    28.6241     0.2245    15.4735 </r>
       <r>    28.7518     0.2062    15.4999 </r>
       <r>    28.8795     0.1803    15.5229 </r>
       <r>    29.0073     0.1537    15.5425 </r>
       <r>    29.1350     0.0934    15.5545 </r>
       <r>    29.2627     0.0970    15.5668 </r>
       <r>    29.3905     0.1709    15.5887 </r>
       <r>    29.5182     0.1816    15.6119 </r>
       <r>    29.6459     0.1542    15.6316 </r>
       <r>    29.7737     0.1696    15.6532 </r>
       <r>    29.9014     0.2196    15.6813 </r>
       <r>    30.0291     0.1738    15.7035 </r>
       <r>    30.1568     0.0987    15.7161 </r>
       <r>    30.2846     0.1255    15.7321 </r>
       <r>    30.4123     0.1105    15.7462 </r>
       <r>    30.5400     0.0560    15.7534 </r>
       <r>    30.6678     0.0595    15.7610 </r>
       <r>    30.7955     0.0874    15.7721 </r>
       <r>    30.9232     0.1069    15.7858 </r>
       <r>    31.0510     0.0912    15.7974 </r>
       <r>    31.1787     0.1056    15.8109 </r>
       <r>    31.3064     0.0861    15.8219 </r>
       <r>    31.4342     0.0187    15.8243 </r>
       <r>    31.5619     0.0003    15.8244 </r>
       <r>    31.6896     0.0311    15.8283 </r>
       <r>    31.8174     0.0864    15.8394 </r>
       <r>    31.9451     0.1433    15.8577 </r>
       <r>    32.0728     0.1300    15.8743 </r>
       <r>    32.2005     0.0399    15.8794 </r>
       <r>    32.3283    -0.0019    15.8791 </r>
       <r>    32.4560     0.0316    15.8832 </r>
       <r>    32.5837     0.0605    15.8909 </r>
       <r>    32.7115     0.0355    15.8954 </r>
       <r>    32.8392     0.0283    15.8990 </r>
       <r>    32.9669     0.1005    15.9119 </r>
       <r>    33.0947     0.1978    15.9371 </r>
       <r>    33.2224     0.1607    15.9577 </r>
       <r>    33.3501     0.0520    15.9643 </r>
       <r>    33.4779     0.0462    15.9702 </r>
       <r>    33.6056     0.0612    15.9780 </r>
       <r>    33.7333     0.0199    15.9806 </r>
       <r>    33.8611    -0.0031    15.9802 </r>
       <r>    33.9888     0.0019    15.9804 </r>
       <r>    34.1165     0.0094    15.9816 </r>
       <r>    34.2442     0.0059    15.9824 </r>
       <r>    34.3720    -0.0008    15.9823 </r>
       <r>    34.4997     0.0074    15.9832 </r>
       <r>    34.6274     0.0295    15.9870 </r>
       <r>    34.7552     0.0351    15.9915 </r>
       <r>    34.8829     0.0219    15.9943 </r>
       <r>    35.0106     0.0069    15.9952 </r>
       <r>    35.1384    -0.0006    15.9951 </r>
       <r>    35.2661    -0.0016    15.9949 </r>
       <r>    35.3938     0.0015    15.9951 </r>
       <r>    35.5216     0.0139    15.9968 </r>
       <r>    35.6493     0.0193    15.9993 </r>
       <r>    35.7770     0.0069    16.0002 </r>
       <r>    35.9048    -0.0007    16.0001 </r>
       <r>    36.0325    -0.0006    16.0000 </r>
       <r>    36.1602    -0.0001    16.0000 </r>
       <r>    36.2879    -0.0000    16.0000 </r>
       <r>    36.4157    -0.0000    16.0000 </r>
       <r>    36.5434    -0.0000    16.0000 </r>
       <r>    36.6711    -0.0000    16.0000 </r>
       <r>    36.7989    -0.0000    16.0000 </r>
       <r>    36.9266     0.0000    16.0000 </r>
       <r>    37.0543     0.0000    16.0000 </r>
       <r>    37.1821     0.0000    16.0000 </r>
       <r>    37.3098     0.0000    16.0000 </r>
       <r>    37.4375     0.0000    16.0000 </r>
       <r>    37.5653     0.0000    16.0000 </r>
       <r>    37.6930     0.0000    16.0000 </r>
       <r>    37.8207     0.0000    16.0000 </r>
      </set>
      <set comment="spin 2">
       <r>    -0.4987     0.0000     0.0000 </r>
       <r>    -0.3709     0.0000     0.0000 </r>
       <r>    -0.2432     0.0000     0.0000 </r>
       <r>    -0.1155    -0.0000    -0.0000 </r>
       <r>     0.0123    -0.0000    -0.0000 </r>
       <r>     0.1400    -0.0000    -0.0000 </r>
       <r>     0.2677    -0.0000    -0.0000 </r>
       <r>     0.3954    -0.0000    -0.0000 </r>
       <r>     0.5232    -0.0000    -0.0000 </r>
       <r>     0.6509    -0.0000    -0.0000 </r>
       <r>     0.7786    -0.0000    -0.0000 </r>
       <r>     0.9064    -0.0000    -0.0000 </r>
       <r>     1.0341    -0.0000    -0.0000 </r>
       <r>     1.1618    -0.0001    -0.0000 </r>
       <r>     1.2896    -0.0004    -0.0001 </r>
       <r>     1.4173     0.0009     0.0000 </r>
       <r>     1.5450     0.0052     0.0007 </r>
       <r>     1.6728     0.0100     0.0020 </r>
       <r>     1.8005     0.0199     0.0045 </r>
       <r>     1.9282     0.0491     0.0108 </r>
       <r>     2.0560     0.0765     0.0206 </r>
       <r>     2.1837     0.0522     0.0272 </r>
       <r>     2.3114     0.0113     0.0287 </r>
       <r>     2.4392     0.0346     0.0331 </r>
       <r>     2.5669     0.0887     0.0444 </r>
       <r>     2.6946     0.0954     0.0566 </r>
       <r>     2.8223     0.0748     0.0662 </r>
       <r>     2.9501     0.0715     0.0753 </r>
       <r>     3.0778     0.1116     0.0896 </r>
       <r>     3.2055     0.1438     0.1079 </r>
       <r>     3.3333     0.1033     0.1211 </r>
       <r>     3.4610     0.0624     0.1291 </r>
       <r>     3.5887     0.0382     0.1340 </r>
       <r>     3.7165     0.0273     0.1375 </r>
       <r>     3.8442     0.1222     0.1531 </r>
       <r>     3.9719     0.2148     0.1805 </r>
       <r>     4.0997     0.1971     0.2057 </r>
       <r>     4.2274     0.1614     0.2263 </r>
       <r>     4.3551     0.1706     0.2481 </r>
       <r>     4.4829     0.1614     0.2687 </r>
       <r>     4.6106     0.0905     0.2803 </r>
       <r>     4.7383     0.0846     0.2911 </r>
       <r>     4.8660     0.1805     0.3141 </r>
       <r>     4.9938     0.2290     0.3434 </r>
       <r>     5.1215     0.1553     0.3632 </r>
       <r>     5.2492     0.1377     0.3808 </r>
       <r>     5.3770     0.2148     0.4082 </r>
       <r>     5.5047     0.2720     0.4430 </r>
       <r>     5.6324     0.3412     0.4866 </r>
       <r>     5.7602     0.3621     0.5328 </r>
       <r>     5.8879     0.3568     0.5784 </r>
       <r>     6.0156     0.4561     0.6366 </r>
       <r>     6.1434     0.3119     0.6765 </r>
       <r>     6.2711     0.1541     0.6962 </r>
       <r>     6.3988     0.5523     0.7667 </r>
       <r>     6.5266     1.0726     0.9037 </r>
       <r>     6.6543     1.0253     1.0347 </r>
       <r>     6.7820     0.7790     1.1342 </r>
       <r>     6.9097     0.8062     1.2372 </r>
       <r>     7.0375     1.0764     1.3746 </r>
       <r>     7.1652     1.1379     1.5200 </r>
       <r>     7.2929     0.9884     1.6462 </r>
       <r>     7.4207     1.3471     1.8183 </r>
       <r>     7.5484     1.6412     2.0279 </r>
       <r>     7.6761     1.2670     2.1898 </r>
       <r>     7.8039     1.0434     2.3231 </r>
       <r>     7.9316     1.2843     2.4871 </r>
       <r>     8.0593     1.6080     2.6925 </r>
       <r>     8.1871     1.7158     2.9117 </r>
       <r>     8.3148     1.8799     3.1518 </r>
       <r>     8.4425     2.0109     3.4086 </r>
       <r>     8.5703     1.6504     3.6195 </r>
       <r>     8.6980     1.0629     3.7552 </r>
       <r>     8.8257     0.7823     3.8551 </r>
       <r>     8.9534     0.9761     3.9798 </r>
       <r>     9.0812     1.4590     4.1662 </r>
       <r>     9.2089     2.0723     4.4309 </r>
       <r>     9.3366     2.5450     4.7560 </r>
       <r>     9.4644     2.5358     5.0799 </r>
       <r>     9.5921     2.3042     5.3742 </r>
       <r>     9.7198     2.4530     5.6875 </r>
       <r>     9.8476     2.7233     6.0354 </r>
       <r>     9.9753     2.7240     6.3833 </r>
       <r>    10.1030     2.3463     6.6830 </r>
       <r>    10.2308     1.8690     6.9217 </r>
       <r>    10.3585     1.6386     7.1310 </r>
       <r>    10.4862     1.5883     7.3339 </r>
       <r>    10.6140     1.3570     7.5072 </r>
       <r>    10.7417     1.2629     7.6686 </r>
       <r>    10.8694     1.2849     7.8327 </r>
       <r>    10.9971     1.6540     8.0440 </r>
       <r>    11.1249     1.8538     8.2807 </r>
       <r>    11.2526     1.5000     8.4723 </r>
       <r>    11.3803     1.6264     8.6801 </r>
       <r>    11.5081     2.3696     8.9828 </r>
       <r>    11.6358     3.4404     9.4222 </r>
       <r>    11.7635     4.0135     9.9348 </r>
       <r>    11.8913     3.2540    10.3505 </r>
       <r>    12.0190     1.8317    10.5845 </r>
       <r>    12.1467     0.7317    10.6779 </r>
       <r>    12.2745     0.2142    10.7053 </r>
       <r>    12.4022     0.2008    10.7309 </r>
       <r>    12.5299     0.3109    10.7706 </r>
       <r>    12.6577     0.2775    10.8061 </r>
       <r>    12.7854     0.3087    10.8455 </r>
       <r>    12.9131     0.4785    10.9066 </r>
       <r>    13.0408     0.5287    10.9742 </r>
       <r>    13.1686     0.3860    11.0235 </r>
       <r>    13.2963     0.3119    11.0633 </r>
       <r>    13.4240     0.4458    11.1203 </r>
       <r>    13.5518     0.4674    11.1800 </r>
       <r>    13.6795     0.2839    11.2162 </r>
       <r>    13.8072     0.1486    11.2352 </r>
       <r>    13.9350     0.1547    11.2550 </r>
       <r>    14.0627     0.2560    11.2877 </r>
       <r>    14.1904     0.2394    11.3182 </r>
       <r>    14.3182     0.1668    11.3395 </r>
       <r>    14.4459     0.1266    11.3557 </r>
       <r>    14.5736     0.1045    11.3691 </r>
       <r>    14.7014     0.2103    11.3959 </r>
       <r>    14.8291     0.4586    11.4545 </r>
       <r>    14.9568     0.5086    11.5195 </r>
       <r>    15.0846     0.4018    11.5708 </r>
       <r>    15.2123     0.2737    11.6057 </r>
       <r>    15.3400     0.1052    11.6192 </r>
       <r>    15.4677     0.0864    11.6302 </r>
       <r>    15.5955     0.2305    11.6597 </r>
       <r>    15.7232     0.3306    11.7019 </r>
       <r>    15.8509     0.2232    11.7304 </r>
       <r>    15.9787     0.1329    11.7474 </r>
       <r>    16.1064     0.2423    11.7783 </r>
       <r>    16.2341     0.2565    11.8111 </r>
       <r>    16.3619     0.1514    11.8304 </r>
       <r>    16.4896     0.1632    11.8513 </r>
       <r>    16.6173     0.1187    11.8664 </r>
       <r>    16.7451     0.0710    11.8755 </r>
       <r>    16.8728     0.0808    11.8858 </r>
       <r>    17.0005     0.0534    11.8926 </r>
       <r>    17.1283     0.0253    11.8959 </r>
       <r>    17.2560     0.0834    11.9065 </r>
       <r>    17.3837     0.1900    11.9308 </r>
       <r>    17.5114     0.2127    11.9580 </r>
       <r>    17.6392     0.1357    11.9753 </r>
       <r>    17.7669     0.0684    11.9840 </r>
       <r>    17.8946     0.0657    11.9924 </r>
       <r>    18.0224     0.1306    12.0091 </r>
       <r>    18.1501     0.2047    12.0353 </r>
       <r>    18.2778     0.2374    12.0656 </r>
       <r>    18.4056     0.1977    12.0908 </r>
       <r>    18.5333     0.0651    12.0991 </r>
       <r>    18.6610     0.0093    12.1003 </r>
       <r>    18.7888     0.0836    12.1110 </r>
       <r>    18.9165     0.1653    12.1321 </r>
       <r>    19.0442     0.3226    12.1733 </r>
       <r>    19.1720     0.5263    12.2406 </r>
       <r>    19.2997     0.4412    12.2969 </r>
       <r>    19.4274     0.3262    12.3386 </r>
       <r>    19.5551     0.3714    12.3860 </r>
       <r>    19.6829     0.4789    12.4472 </r>
       <r>    19.8106     0.5437    12.5166 </r>
       <r>    19.9383     0.4450    12.5735 </r>
       <r>    20.0661     0.3042    12.6123 </r>
       <r>    20.1938     0.2677    12.6465 </r>
       <r>    20.3215     0.2949    12.6842 </r>
       <r>    20.4493     0.3495    12.7288 </r>
       <r>    20.5770     0.3781    12.7771 </r>
       <r>    20.7047     0.3479    12.8216 </r>
       <r>    20.8325     0.3039    12.8604 </r>
       <r>    20.9602     0.3254    12.9020 </r>
       <r>    21.0879     0.2340    12.9319 </r>
       <r>    21.2157     0.1838    12.9553 </r>
       <r>    21.3434     0.4862    13.0175 </r>
       <r>    21.4711     0.6725    13.1033 </r>
       <r>    21.5988     0.4929    13.1663 </r>
       <r>    21.7266     0.3913    13.2163 </r>
       <r>    21.8543     0.4677    13.2760 </r>
       <r>    21.9820     0.4440    13.3328 </r>
       <r>    22.1098     0.4420    13.3892 </r>
       <r>    22.2375     0.3834    13.4382 </r>
       <r>    22.3652     0.2335    13.4680 </r>
       <r>    22.4930     0.2166    13.4957 </r>
       <r>    22.6207     0.2361    13.5258 </r>
       <r>    22.7484     0.2600    13.5591 </r>
       <r>    22.8762     0.4207    13.6128 </r>
       <r>    23.0039     0.5687    13.6854 </r>
       <r>    23.1316     0.4265    13.7399 </r>
       <r>    23.2594     0.1930    13.7645 </r>
       <r>    23.3871     0.1951    13.7895 </r>
       <r>    23.5148     0.2149    13.8169 </r>
       <r>    23.6425     0.1361    13.8343 </r>
       <r>    23.7703     0.2063    13.8606 </r>
       <r>    23.8980     0.3754    13.9086 </r>
       <r>    24.0257     0.4412    13.9649 </r>
       <r>    24.1535     0.3817    14.0137 </r>
       <r>    24.2812     0.1967    14.0388 </r>
       <r>    24.4089     0.1199    14.0541 </r>
       <r>    24.5367     0.2929    14.0915 </r>
       <r>    24.6644     0.4025    14.1429 </r>
       <r>    24.7921     0.3672    14.1898 </r>
       <r>    24.9199     0.4527    14.2477 </r>
       <r>    25.0476     0.5094    14.3127 </r>
       <r>    25.1753     0.4115    14.3653 </r>
       <r>    25.3031     0.3051    14.4043 </r>
       <r>    25.4308     0.1795    14.4272 </r>
       <r>    25.5585     0.1305    14.4439 </r>
       <r>    25.6862     0.3217    14.4849 </r>
       <r>    25.8140     0.4506    14.5425 </r>
       <r>    25.9417     0.3729    14.5901 </r>
       <r>    26.0694     0.3502    14.6349 </r>
       <r>    26.1972     0.3774    14.6831 </r>
       <r>    26.3249     0.3319    14.7255 </r>
       <r>    26.4526     0.3185    14.7661 </r>
       <r>    26.5804     0.4487    14.8235 </r>
       <r>    26.7081     0.5196    14.8898 </r>
       <r>    26.8358     0.4023    14.9412 </r>
       <r>    26.9636     0.2972    14.9792 </r>
       <r>    27.0913     0.3982    15.0300 </r>
       <r>    27.2190     0.4460    15.0870 </r>
       <r>    27.3468     0.2396    15.1176 </r>
       <r>    27.4745     0.1671    15.1389 </r>
       <r>    27.6022     0.2204    15.1671 </r>
       <r>    27.7299     0.1925    15.1917 </r>
       <r>    27.8577     0.0998    15.2044 </r>
       <r>    27.9854     0.1290    15.2209 </r>
       <r>    28.1131     0.3295    15.2630 </r>
       <r>    28.2409     0.4473    15.3201 </r>
       <r>    28.3686     0.3415    15.3637 </r>
       <r>    28.4963     0.2058    15.3900 </r>
       <r>    28.6241     0.1602    15.4105 </r>
       <r>    28.7518     0.1659    15.4317 </r>
       <r>    28.8795     0.2324    15.4614 </r>
       <r>    29.0073     0.2841    15.4977 </r>
       <r>    29.1350     0.2028    15.5236 </r>
       <r>    29.2627     0.1068    15.5372 </r>
       <r>    29.3905     0.1058    15.5507 </r>
       <r>    29.5182     0.1499    15.5699 </r>
       <r>    29.6459     0.1804    15.5929 </r>
       <r>    29.7737     0.1366    15.6103 </r>
       <r>    29.9014     0.1178    15.6254 </r>
       <r>    30.0291     0.2193    15.6534 </r>
       <r>    30.1568     0.2458    15.6848 </r>
       <r>    30.2846     0.1466    15.7035 </r>
       <r>    30.4123     0.1044    15.7169 </r>
       <r>    30.5400     0.1486    15.7358 </r>
       <r>    30.6678     0.1429    15.7541 </r>
       <r>    30.7955     0.0673    15.7627 </r>
       <r>    30.9232     0.0250    15.7659 </r>
       <r>    31.0510     0.0725    15.7752 </r>
       <r>    31.1787     0.1270    15.7914 </r>
       <r>    31.3064     0.1349    15.8086 </r>
       <r>    31.4342     0.0963    15.8209 </r>
       <r>    31.5619     0.0358    15.8255 </r>
       <r>    31.6896     0.0205    15.8281 </r>
       <r>    31.8174     0.0484    15.8343 </r>
       <r>    31.9451     0.0528    15.8410 </r>
       <r>    32.0728     0.0905    15.8526 </r>
       <r>    32.2005     0.1320    15.8695 </r>
       <r>    32.3283     0.0788    15.8795 </r>
       <r>    32.4560     0.0537    15.8864 </r>
       <r>    32.5837     0.0638    15.8945 </r>
       <r>    32.7115     0.0244    15.8976 </r>
       <r>    32.8392    -0.0036    15.8972 </r>
       <r>    32.9669     0.0226    15.9001 </r>
       <r>    33.0947     0.0975    15.9125 </r>
       <r>    33.2224     0.1647    15.9336 </r>
       <r>    33.3501     0.1593    15.9539 </r>
       <r>    33.4779     0.1156    15.9687 </r>
       <r>    33.6056     0.0720    15.9779 </r>
       <r>    33.7333     0.0239    15.9809 </r>
       <r>    33.8611     0.0062    15.9817 </r>
       <r>    33.9888     0.0057    15.9824 </r>
       <r>    34.1165     0.0007    15.9825 </r>
       <r>    34.2442    -0.0021    15.9823 </r>
       <r>    34.3720     0.0014    15.9825 </r>
       <r>    34.4997     0.0217    15.9852 </r>
       <r>    34.6274     0.0384    15.9901 </r>
       <r>    34.7552     0.0270    15.9936 </r>
       <r>    34.8829     0.0106    15.9949 </r>
       <r>    35.0106     0.0014    15.9951 </r>
       <r>    35.1384    -0.0012    15.9950 </r>
       <r>    35.2661     0.0015    15.9951 </r>
       <r>    35.3938     0.0082    15.9962 </r>
       <r>    35.5216     0.0083    15.9972 </r>
       <r>    35.6493     0.0039    15.9977 </r>
       <r>    35.7770     0.0074    15.9987 </r>
       <r>    35.9048     0.0084    15.9998 </r>
       <r>    36.0325     0.0025    16.0001 </r>
       <r>    36.1602    -0.0004    16.0000 </r>
       <r>    36.2879    -0.0002    16.0000 </r>
       <r>    36.4157    -0.0000    16.0000 </r>
       <r>    36.5434    -0.0000    16.0000 </r>
       <r>    36.6711    -0.0000    16.0000 </r>
       <r>    36.7989    -0.0000    16.0000 </r>
       <r>    36.9266    -0.0000    16.0000 </r>
       <r>    37.0543    -0.0000    16.0000 </r>
       <r>    37.1821     0.0000    16.0000 </r>
       <r>    37.3098     0.0000    16.0000 </r>
       <r>    37.4375     0.0000    16.0000 </r>
       <r>    37.5653     0.0000    16.0000 </r>
       <r>    37.6930     0.0000    16.0000 </r>
       <r>    37.8207     0.0000    16.0000 </r>
      </set>
     </set>
    </array>
   </total>
  </dos>
 </calculation>
 <structure name="finalpos" >
  <crystal>
   <varray name="basis" >
    <v>       1.23599995      -2.14081471       0.00000000 </v>
    <v>       1.23599995       2.14081471       0.00000000 </v>
    <v>       0.00000000       0.00000000       4.02114408 </v>
   </varray>
   <i name="volume">     21.28027152 </i>
   <varray name="rec_basis" >
    <v>       0.40453076      -0.23355594       0.00000000 </v>
    <v>       0.40453076       0.23355594       0.00000000 </v>
    <v>       0.00000000       0.00000000       0.24868544 </v>
   </varray>
  </crystal>
  <varray name="positions" >
   <v>       0.33333333       0.66666667       0.25000000 </v>
   <v>       0.66666667       0.33333333       0.75000000 </v>
  </varray>
 </structure>
</modeling>
