   2   2   1   0
  0.1064014E+02  0.2472000E-09  0.2472000E-09  0.4021144E-09  0.5000000E-15
  1.000000000000000E-004
  CAR 
 Co-hcc                                  
     37.52412858     -0.21045812  301     10.53044716      1.00000000
     -0.210  0.0000E+00  0.0000E+00  0.0000E+00  0.0000E+00
     -0.085  0.0000E+00  0.0000E+00  0.0000E+00  0.0000E+00
      0.041  0.0000E+00  0.0000E+00  0.0000E+00  0.0000E+00
      0.167  0.0000E+00  0.0000E+00  0.0000E+00  0.0000E+00
      0.293  0.0000E+00  0.0000E+00  0.0000E+00  0.0000E+00
      0.418  0.0000E+00  0.0000E+00  0.0000E+00  0.0000E+00
      0.544  0.0000E+00  0.0000E+00  0.0000E+00  0.0000E+00
      0.670  0.0000E+00  0.0000E+00  0.0000E+00  0.0000E+00
      0.796  0.0000E+00  0.0000E+00  0.0000E+00  0.0000E+00
      0.922  0.0000E+00  0.0000E+00  0.0000E+00  0.0000E+00
      1.047  0.0000E+00  0.0000E+00  0.0000E+00  0.0000E+00
      1.173  0.0000E+00  0.0000E+00  0.0000E+00  0.0000E+00
      1.299  0.1026E-11  0.7542E-11  0.1291E-12  0.9486E-12
      1.425  0.1248E-04  0.3056E-04  0.1570E-05  0.3844E-05
      1.550  0.2949E-02  0.3594E-02  0.3725E-03  0.4559E-03
      1.676  0.1832E-01  0.2085E-01  0.2676E-02  0.3079E-02
      1.802  0.3545E-01  0.3311E-01  0.7135E-02  0.7244E-02
      1.928  0.2355E-01  0.2819E-01  0.1010E-01  0.1079E-01
      2.054  0.6045E-01  0.5749E-01  0.1770E-01  0.1802E-01
      2.179  0.5143E-01  0.5241E-01  0.2417E-01  0.2461E-01
      2.305  0.5833E-01  0.5767E-01  0.3151E-01  0.3187E-01
      2.431  0.3643E-01  0.3451E-01  0.3609E-01  0.3621E-01
      2.557  0.9507E-01  0.9664E-01  0.4805E-01  0.4836E-01
      2.683  0.6103E-01  0.5824E-01  0.5572E-01  0.5569E-01
      2.808  0.1296E+00  0.1289E+00  0.7203E-01  0.7190E-01
      2.934  0.1560E-01  0.1473E-01  0.7399E-01  0.7375E-01
      3.060  0.1012E+00  0.9554E-01  0.8672E-01  0.8577E-01
      3.186  0.9566E-01  0.9508E-01  0.9875E-01  0.9773E-01
      3.311  0.1414E+00  0.1244E+00  0.1165E+00  0.1134E+00
      3.437  0.8076E-01  0.8482E-01  0.1267E+00  0.1240E+00
      3.563  0.1298E+00  0.1332E+00  0.1430E+00  0.1408E+00
      3.689  0.1174E+00  0.1003E+00  0.1578E+00  0.1534E+00
      3.815  0.1098E+00  0.1159E+00  0.1716E+00  0.1680E+00
      3.940  0.7822E-01  0.5403E-01  0.1814E+00  0.1748E+00
      4.066  0.1843E+00  0.1654E+00  0.2046E+00  0.1956E+00
      4.192  0.2533E+00  0.1837E+00  0.2365E+00  0.2187E+00
      4.318  0.1122E+00  0.1775E+00  0.2506E+00  0.2410E+00
      4.443  0.1197E+00  0.9812E-01  0.2656E+00  0.2534E+00
      4.569  0.2423E+00  0.9460E-01  0.2961E+00  0.2653E+00
      4.695  0.1373E+00  0.2470E+00  0.3134E+00  0.2963E+00
      4.821  0.2923E+00  0.1058E+00  0.3502E+00  0.3096E+00
      4.947  0.2192E+00  0.1932E+00  0.3777E+00  0.3339E+00
      5.072  0.4102E+00  0.2170E+00  0.4293E+00  0.3612E+00
      5.198  0.3609E+00  0.1544E+00  0.4747E+00  0.3807E+00
      5.324  0.3832E+00  0.3733E+00  0.5229E+00  0.4276E+00
      5.450  0.9171E+00  0.1537E+00  0.6383E+00  0.4469E+00
      5.576  0.1273E+01  0.2097E+00  0.7984E+00  0.4733E+00
      5.701  0.9591E+00  0.1914E+00  0.9191E+00  0.4974E+00
      5.827  0.1221E+01  0.3180E+00  0.1073E+01  0.5374E+00
      5.953  0.1565E+01  0.4517E+00  0.1270E+01  0.5942E+00
      6.079  0.1291E+01  0.4600E+00  0.1432E+01  0.6521E+00
      6.204  0.2244E+01  0.3378E+00  0.1714E+01  0.6946E+00
      6.330  0.1558E+01  0.6887E+00  0.1910E+01  0.7812E+00
      6.456  0.1435E+01  0.6659E+00  0.2091E+01  0.8649E+00
      6.582  0.1562E+01  0.8793E+00  0.2287E+01  0.9755E+00
      6.708  0.1820E+01  0.8838E+00  0.2516E+01  0.1087E+01
      6.833  0.1641E+01  0.8100E+00  0.2723E+01  0.1189E+01
      6.959  0.1975E+01  0.9816E+00  0.2971E+01  0.1312E+01
      7.085  0.2201E+01  0.9451E+00  0.3248E+01  0.1431E+01
      7.211  0.2096E+01  0.1299E+01  0.3511E+01  0.1594E+01
      7.336  0.1597E+01  0.1222E+01  0.3712E+01  0.1748E+01
      7.462  0.1015E+01  0.1550E+01  0.3840E+01  0.1943E+01
      7.588  0.1512E+01  0.1245E+01  0.4030E+01  0.2100E+01
      7.714  0.2802E+01  0.1218E+01  0.4382E+01  0.2253E+01
      7.840  0.2780E+01  0.1176E+01  0.4732E+01  0.2401E+01
      7.965  0.2714E+01  0.1456E+01  0.5074E+01  0.2584E+01
      8.091  0.2659E+01  0.1540E+01  0.5408E+01  0.2778E+01
      8.217  0.2919E+01  0.1883E+01  0.5775E+01  0.3015E+01
      8.343  0.3392E+01  0.1891E+01  0.6202E+01  0.3252E+01
      8.468  0.2718E+01  0.2100E+01  0.6544E+01  0.3517E+01
      8.594  0.2266E+01  0.1323E+01  0.6829E+01  0.3683E+01
      8.720  0.2141E+01  0.8607E+00  0.7098E+01  0.3791E+01
      8.846  0.1797E+01  0.8834E+00  0.7324E+01  0.3902E+01
      8.972  0.1748E+01  0.9420E+00  0.7544E+01  0.4021E+01
      9.097  0.1951E+01  0.1807E+01  0.7789E+01  0.4248E+01
      9.223  0.1371E+01  0.2457E+01  0.7962E+01  0.4557E+01
      9.349  0.2126E+01  0.2307E+01  0.8229E+01  0.4847E+01
      9.475  0.1921E+01  0.2367E+01  0.8471E+01  0.5145E+01
      9.601  0.2482E+01  0.2527E+01  0.8783E+01  0.5463E+01
      9.726  0.2973E+01  0.2482E+01  0.9157E+01  0.5775E+01
      9.852  0.4243E+01  0.2770E+01  0.9691E+01  0.6123E+01
      9.978  0.4218E+01  0.2837E+01  0.1022E+02  0.6480E+01
     10.104  0.1878E+01  0.2123E+01  0.1046E+02  0.6747E+01
     10.229  0.3414E+00  0.1827E+01  0.1050E+02  0.6977E+01
     10.355  0.2864E+00  0.1462E+01  0.1054E+02  0.7161E+01
     10.481  0.1944E+00  0.1485E+01  0.1056E+02  0.7348E+01
     10.607  0.1829E+00  0.1445E+01  0.1058E+02  0.7530E+01
     10.733  0.4627E+00  0.1458E+01  0.1064E+02  0.7713E+01
     10.858  0.4092E+00  0.1497E+01  0.1069E+02  0.7901E+01
     10.984  0.3653E+00  0.1085E+01  0.1074E+02  0.8038E+01
     11.110  0.2939E+00  0.1984E+01  0.1078E+02  0.8287E+01
     11.236  0.2317E+00  0.1452E+01  0.1081E+02  0.8470E+01
     11.361  0.1157E+00  0.1959E+01  0.1082E+02  0.8716E+01
     11.487  0.8362E-01  0.2552E+01  0.1083E+02  0.9037E+01
     11.613  0.2153E+00  0.3296E+01  0.1086E+02  0.9452E+01
     11.739  0.6597E+00  0.3951E+01  0.1094E+02  0.9949E+01
     11.865  0.4864E+00  0.3802E+01  0.1100E+02  0.1043E+02
     11.990  0.3441E+00  0.1110E+01  0.1105E+02  0.1057E+02
     12.116  0.1318E+00  0.2926E+00  0.1106E+02  0.1060E+02
     12.242  0.1231E+00  0.5255E+00  0.1108E+02  0.1067E+02
     12.368  0.1465E+00  0.5227E+00  0.1110E+02  0.1074E+02
     12.494  0.2870E+00  0.4308E+00  0.1113E+02  0.1079E+02
     12.619  0.3114E+00  0.3625E+00  0.1117E+02  0.1084E+02
     12.745  0.1887E+00  0.2563E+00  0.1119E+02  0.1087E+02
     12.871  0.2127E+00  0.3552E+00  0.1122E+02  0.1091E+02
     12.997  0.3639E+00  0.3487E+00  0.1127E+02  0.1096E+02
     13.122  0.1887E+00  0.5463E+00  0.1129E+02  0.1102E+02
     13.248  0.1691E+00  0.3868E+00  0.1131E+02  0.1107E+02
     13.374  0.3090E+00  0.2068E+00  0.1135E+02  0.1110E+02
     13.500  0.2137E+00  0.2169E+00  0.1138E+02  0.1113E+02
     13.626  0.2212E+00  0.4513E+00  0.1141E+02  0.1118E+02
     13.751  0.2440E+00  0.1976E+00  0.1144E+02  0.1121E+02
     13.877  0.1377E+00  0.1120E+00  0.1145E+02  0.1122E+02
     14.003  0.2861E+00  0.3512E+00  0.1149E+02  0.1127E+02
     14.129  0.1695E+00  0.4052E+00  0.1151E+02  0.1132E+02
     14.254  0.1669E+00  0.2482E+00  0.1153E+02  0.1135E+02
     14.380  0.2148E+00  0.2234E+00  0.1156E+02  0.1138E+02
     14.506  0.4016E+00  0.2434E+00  0.1161E+02  0.1141E+02
     14.632  0.1313E+00  0.2114E+00  0.1163E+02  0.1143E+02
     14.758  0.2154E+00  0.3204E+00  0.1165E+02  0.1147E+02
     14.883  0.1723E+00  0.2116E+00  0.1167E+02  0.1150E+02
     15.009  0.1551E+00  0.1659E+00  0.1169E+02  0.1152E+02
     15.135  0.2843E+00  0.1855E+00  0.1173E+02  0.1155E+02
     15.261  0.2896E+00  0.3354E+00  0.1177E+02  0.1159E+02
     15.387  0.1756E+00  0.3294E+00  0.1179E+02  0.1163E+02
     15.512  0.1366E+00  0.1394E+00  0.1181E+02  0.1165E+02
     15.638  0.1971E+00  0.1758E+00  0.1183E+02  0.1167E+02
     15.764  0.8855E-01  0.2403E+00  0.1184E+02  0.1170E+02
     15.890  0.9301E-01  0.2571E+00  0.1185E+02  0.1173E+02
     16.015  0.1218E+00  0.2523E+00  0.1187E+02  0.1176E+02
     16.141  0.8604E-01  0.2244E+00  0.1188E+02  0.1179E+02
     16.267  0.1886E+00  0.2001E+00  0.1190E+02  0.1182E+02
     16.393  0.3359E-01  0.1828E+00  0.1191E+02  0.1184E+02
     16.519  0.1427E+00  0.4143E-01  0.1193E+02  0.1184E+02
     16.644  0.2383E+00  0.1250E+00  0.1196E+02  0.1186E+02
     16.770  0.1022E+00  0.1151E+00  0.1197E+02  0.1187E+02
     16.896  0.8705E-01  0.2320E+00  0.1198E+02  0.1190E+02
     17.022  0.1467E+00  0.1786E-01  0.1200E+02  0.1191E+02
     17.147  0.4266E-01  0.1309E+00  0.1200E+02  0.1192E+02
     17.273  0.4644E-01  0.2246E+00  0.1201E+02  0.1195E+02
     17.399  0.1274E+00  0.1438E+00  0.1203E+02  0.1197E+02
     17.525  0.7682E-01  0.5780E-01  0.1203E+02  0.1198E+02
     17.651  0.1308E+00  0.1500E+00  0.1205E+02  0.1199E+02
     17.776  0.1159E+00  0.1003E-01  0.1207E+02  0.1200E+02
     17.902  0.6431E-01  0.9561E-02  0.1207E+02  0.1200E+02
     18.028  0.1087E+00  0.1087E+00  0.1209E+02  0.1201E+02
     18.154  0.2308E+00  0.8982E-01  0.1212E+02  0.1202E+02
     18.279  0.2988E+00  0.1095E+00  0.1215E+02  0.1204E+02
     18.405  0.6005E+00  0.1089E+00  0.1223E+02  0.1205E+02
     18.531  0.6411E+00  0.1133E+00  0.1231E+02  0.1206E+02
     18.657  0.3841E+00  0.1200E+00  0.1236E+02  0.1208E+02
     18.783  0.4400E+00  0.8581E-01  0.1241E+02  0.1209E+02
     18.908  0.2372E+00  0.1821E+00  0.1244E+02  0.1211E+02
     19.034  0.4175E+00  0.5395E+00  0.1250E+02  0.1218E+02
     19.160  0.4036E+00  0.6318E+00  0.1255E+02  0.1226E+02
     19.286  0.1539E+00  0.4860E+00  0.1257E+02  0.1232E+02
     19.412  0.2508E+00  0.4565E+00  0.1260E+02  0.1238E+02
     19.537  0.3834E+00  0.4020E+00  0.1265E+02  0.1243E+02
     19.663  0.2326E+00  0.3914E+00  0.1268E+02  0.1248E+02
     19.789  0.2540E+00  0.3766E+00  0.1271E+02  0.1253E+02
     19.915  0.2546E+00  0.2867E+00  0.1274E+02  0.1256E+02
     20.040  0.3619E+00  0.3261E+00  0.1278E+02  0.1260E+02
     20.166  0.4137E+00  0.2490E+00  0.1284E+02  0.1263E+02
     20.292  0.4205E+00  0.3593E+00  0.1289E+02  0.1268E+02
     20.418  0.1806E+00  0.2777E+00  0.1291E+02  0.1271E+02
     20.544  0.3134E+00  0.3171E+00  0.1295E+02  0.1275E+02
     20.669  0.4503E+00  0.4141E+00  0.1301E+02  0.1281E+02
     20.795  0.2874E+00  0.4386E+00  0.1304E+02  0.1286E+02
     20.921  0.4635E+00  0.3182E+00  0.1310E+02  0.1290E+02
     21.047  0.3674E+00  0.3076E+00  0.1315E+02  0.1294E+02
     21.172  0.3371E+00  0.3440E+00  0.1319E+02  0.1298E+02
     21.298  0.2770E+00  0.4694E+00  0.1323E+02  0.1304E+02
     21.424  0.4757E+00  0.5224E+00  0.1329E+02  0.1311E+02
     21.550  0.4483E+00  0.2730E+00  0.1334E+02  0.1314E+02
     21.676  0.4818E+00  0.2646E+00  0.1340E+02  0.1318E+02
     21.801  0.3154E+00  0.5020E+00  0.1344E+02  0.1324E+02
     21.927  0.2141E+00  0.4635E+00  0.1347E+02  0.1330E+02
     22.053  0.2548E+00  0.4032E+00  0.1350E+02  0.1335E+02
     22.179  0.2475E+00  0.5403E+00  0.1353E+02  0.1342E+02
     22.305  0.3965E+00  0.2952E+00  0.1358E+02  0.1345E+02
     22.430  0.4637E+00  0.1881E+00  0.1364E+02  0.1348E+02
     22.556  0.4033E+00  0.2564E+00  0.1369E+02  0.1351E+02
     22.682  0.2083E+00  0.2031E+00  0.1372E+02  0.1353E+02
     22.808  0.2301E+00  0.5662E+00  0.1375E+02  0.1361E+02
     22.933  0.5136E+00  0.5153E+00  0.1381E+02  0.1367E+02
     23.059  0.1960E+00  0.3276E+00  0.1384E+02  0.1371E+02
     23.185  0.2867E+00  0.1775E+00  0.1387E+02  0.1373E+02
     23.311  0.9983E-01  0.3218E+00  0.1389E+02  0.1377E+02
     23.437  0.2112E+00  0.4070E+00  0.1391E+02  0.1383E+02
     23.562  0.2979E+00  0.2539E+00  0.1395E+02  0.1386E+02
     23.688  0.4100E+00  0.2018E+00  0.1400E+02  0.1388E+02
     23.814  0.3260E+00  0.1339E+00  0.1404E+02  0.1390E+02
     23.940  0.2131E+00  0.2746E+00  0.1407E+02  0.1393E+02
     24.065  0.2134E+00  0.3904E+00  0.1410E+02  0.1398E+02
     24.191  0.2592E+00  0.3227E+00  0.1413E+02  0.1402E+02
     24.317  0.3522E+00  0.2540E+00  0.1417E+02  0.1406E+02
     24.443  0.3209E+00  0.2385E+00  0.1421E+02  0.1409E+02
     24.569  0.2877E+00  0.1858E+00  0.1425E+02  0.1411E+02
     24.694  0.3610E+00  0.4025E+00  0.1429E+02  0.1416E+02
     24.820  0.4564E+00  0.2795E+00  0.1435E+02  0.1420E+02
     24.946  0.3719E+00  0.3590E+00  0.1440E+02  0.1424E+02
     25.072  0.4051E+00  0.3484E+00  0.1445E+02  0.1428E+02
     25.197  0.1380E+00  0.4494E+00  0.1447E+02  0.1434E+02
     25.323  0.3885E+00  0.4040E+00  0.1452E+02  0.1439E+02
     25.449  0.5281E+00  0.3644E+00  0.1458E+02  0.1444E+02
     25.575  0.3156E+00  0.2711E+00  0.1462E+02  0.1447E+02
     25.701  0.3755E+00  0.3738E+00  0.1467E+02  0.1452E+02
     25.826  0.2468E+00  0.5394E+00  0.1470E+02  0.1459E+02
     25.952  0.3470E+00  0.3095E+00  0.1474E+02  0.1463E+02
     26.078  0.2326E+00  0.3440E+00  0.1477E+02  0.1467E+02
     26.204  0.3674E+00  0.3371E+00  0.1482E+02  0.1471E+02
     26.330  0.4542E+00  0.3439E+00  0.1488E+02  0.1475E+02
     26.455  0.4625E+00  0.2583E+00  0.1493E+02  0.1479E+02
     26.581  0.1396E+00  0.4181E+00  0.1495E+02  0.1484E+02
     26.707  0.2228E+00  0.4789E+00  0.1498E+02  0.1490E+02
     26.833  0.3548E+00  0.3628E+00  0.1502E+02  0.1495E+02
     26.958  0.4093E+00  0.1496E+00  0.1508E+02  0.1496E+02
     27.084  0.2037E+00  0.3062E+00  0.1510E+02  0.1500E+02
     27.210  0.3147E+00  0.4320E+00  0.1514E+02  0.1506E+02
     27.336  0.1386E+00  0.2719E+00  0.1516E+02  0.1509E+02
     27.462  0.2880E+00  0.2254E+00  0.1520E+02  0.1512E+02
     27.587  0.2016E+00  0.2587E+00  0.1522E+02  0.1515E+02
     27.713  0.2084E+00  0.2934E+00  0.1525E+02  0.1519E+02
     27.839  0.3517E+00  0.2027E+00  0.1529E+02  0.1521E+02
     27.965  0.1449E+00  0.1900E+00  0.1531E+02  0.1524E+02
     28.090  0.2811E+00  0.3371E+00  0.1534E+02  0.1528E+02
     28.216  0.3923E+00  0.2264E+00  0.1539E+02  0.1531E+02
     28.342  0.3417E+00  0.1902E+00  0.1544E+02  0.1533E+02
     28.468  0.2103E+00  0.4483E+00  0.1546E+02  0.1539E+02
     28.594  0.1879E+00  0.3158E+00  0.1549E+02  0.1543E+02
     28.719  0.1121E+00  0.2962E+00  0.1550E+02  0.1547E+02
     28.845  0.2501E-01  0.1350E+00  0.1550E+02  0.1548E+02
     28.971  0.1210E+00  0.1447E+00  0.1552E+02  0.1550E+02
     29.097  0.2834E+00  0.1611E-01  0.1555E+02  0.1550E+02
     29.223  0.9373E-01  0.1329E+00  0.1557E+02  0.1552E+02
     29.348  0.1210E+00  0.2887E+00  0.1558E+02  0.1556E+02
     29.474  0.1615E+00  0.1120E+00  0.1560E+02  0.1557E+02
     29.600  0.2377E+00  0.1276E+00  0.1563E+02  0.1559E+02
     29.726  0.1740E+00  0.1580E+00  0.1565E+02  0.1561E+02
     29.851  0.6808E-01  0.2329E+00  0.1566E+02  0.1564E+02
     29.977  0.1515E+00  0.1861E+00  0.1568E+02  0.1566E+02
     30.103  0.1606E+00  0.9840E-01  0.1570E+02  0.1567E+02
     30.229  0.5899E-01  0.1488E+00  0.1571E+02  0.1569E+02
     30.355  0.1086E+00  0.1214E+00  0.1572E+02  0.1571E+02
     30.480  0.2168E+00  0.1066E+00  0.1575E+02  0.1572E+02
     30.606  0.9265E-01  0.1642E+00  0.1576E+02  0.1574E+02
     30.732  0.5433E-01  0.1096E+00  0.1577E+02  0.1575E+02
     30.858  0.6452E-01  0.1070E+00  0.1578E+02  0.1577E+02
     30.983  0.7120E-01  0.4969E-01  0.1579E+02  0.1577E+02
     31.109  0.2867E-01  0.9680E-01  0.1579E+02  0.1579E+02
     31.235  0.6822E-01  0.2635E-01  0.1580E+02  0.1579E+02
     31.361  0.6998E-01  0.5683E-01  0.1581E+02  0.1580E+02
     31.487  0.1139E+00  0.7963E-01  0.1582E+02  0.1581E+02
     31.612  0.6131E-01  0.1334E+00  0.1583E+02  0.1582E+02
     31.738  0.7723E-01  0.1458E+00  0.1584E+02  0.1584E+02
     31.864  0.1594E+00  0.3282E-01  0.1586E+02  0.1585E+02
     31.990  0.9307E-01  0.1336E+00  0.1587E+02  0.1586E+02
     32.116  0.9737E-01  0.7897E-01  0.1588E+02  0.1587E+02
     32.241  0.5898E-01  0.9263E-01  0.1589E+02  0.1588E+02
     32.367  0.4604E-01  0.5178E-01  0.1590E+02  0.1589E+02
     32.493  0.6106E-01  0.5480E-01  0.1590E+02  0.1590E+02
     32.619  0.8476E-01  0.1123E+00  0.1591E+02  0.1591E+02
     32.744  0.2047E-01  0.5267E-01  0.1592E+02  0.1592E+02
     32.870  0.1528E+00  0.8326E-01  0.1594E+02  0.1593E+02
     32.996  0.1316E-01  0.8039E-01  0.1594E+02  0.1594E+02
     33.122  0.1716E-01  0.5056E-01  0.1594E+02  0.1594E+02
     33.248  0.3550E-01  0.8175E-02  0.1594E+02  0.1595E+02
     33.373  0.9395E-02  0.1899E-02  0.1595E+02  0.1595E+02
     33.499  0.4299E-02  0.2307E-01  0.1595E+02  0.1595E+02
     33.625  0.6639E-01  0.2412E-01  0.1595E+02  0.1595E+02
     33.751  0.1118E+00  0.8900E-01  0.1597E+02  0.1596E+02
     33.876  0.5760E-01  0.9987E-01  0.1598E+02  0.1598E+02
     34.002  0.5917E-02  0.2041E-02  0.1598E+02  0.1598E+02
     34.128  0.5716E-01  0.7646E-02  0.1598E+02  0.1598E+02
     34.254  0.5394E-01  0.5316E-01  0.1599E+02  0.1598E+02
     34.380  0.4731E-02  0.2633E-01  0.1599E+02  0.1599E+02
     34.505  0.6061E-03  0.3158E-01  0.1599E+02  0.1599E+02
     34.631  0.2561E-01  0.2105E-01  0.1599E+02  0.1599E+02
     34.757  0.2040E-01  0.2110E-01  0.1600E+02  0.1600E+02
     34.883  0.4640E-02  0.9855E-02  0.1600E+02  0.1600E+02
     35.008  0.9935E-03  0.1034E-04  0.1600E+02  0.1600E+02
     35.134  0.2457E-07  0.1549E-02  0.1600E+02  0.1600E+02
     35.260  0.1582E-04  0.4138E-02  0.1600E+02  0.1600E+02
     35.386  0.5002E-02  0.4605E-02  0.1600E+02  0.1600E+02
     35.512  0.5548E-02  0.3562E-03  0.1600E+02  0.1600E+02
     35.637  0.5426E-02  0.4767E-02  0.1600E+02  0.1600E+02
     35.763  0.4668E-02  0.2511E-02  0.1600E+02  0.1600E+02
     35.889  0.4416E-04  0.2746E-02  0.1600E+02  0.1600E+02
     36.015  0.7244E-11  0.3052E-04  0.1600E+02  0.1600E+02
     36.141  0.0000E+00  0.7542E-11  0.1600E+02  0.1600E+02
     36.266  0.0000E+00  0.0000E+00  0.1600E+02  0.1600E+02
     36.392  0.0000E+00  0.0000E+00  0.1600E+02  0.1600E+02
     36.518  0.0000E+00  0.0000E+00  0.1600E+02  0.1600E+02
     36.644  0.0000E+00  0.0000E+00  0.1600E+02  0.1600E+02
     36.769  0.0000E+00  0.0000E+00  0.1600E+02  0.1600E+02
     36.895  0.0000E+00  0.0000E+00  0.1600E+02  0.1600E+02
     37.021  0.0000E+00  0.0000E+00  0.1600E+02  0.1600E+02
     37.147  0.0000E+00  0.0000E+00  0.1600E+02  0.1600E+02
     37.273  0.0000E+00  0.0000E+00  0.1600E+02  0.1600E+02
     37.398  0.0000E+00  0.0000E+00  0.1600E+02  0.1600E+02
     37.524  0.0000E+00  0.0000E+00  0.1600E+02  0.1600E+02
     37.52412858     -0.21045812  301     10.53044716      1.00000000
     -0.210  0.0000E+00  0.0000E+00  0.0000E+00  0.0000E+00  0.0000E+00  0.0000E+00  0.0000E+00  0.0000E+00  0.0000E+00  0.0000E+00  0.0000E+00  0.0000E+00  0.0000E+00  0.0000E+00  0.0000E+00  0.0000E+00  0.0000E+00  0.0000E+00
     -0.085  0.0000E+00  0.0000E+00  0.0000E+00  0.0000E+00  0.0000E+00  0.0000E+00  0.0000E+00  0.0000E+00  0.0000E+00  0.0000E+00  0.0000E+00  0.0000E+00  0.0000E+00  0.0000E+00  0.0000E+00  0.0000E+00  0.0000E+00  0.0000E+00
      0.041  0.0000E+00  0.0000E+00  0.0000E+00  0.0000E+00  0.0000E+00  0.0000E+00  0.0000E+00  0.0000E+00  0.0000E+00  0.0000E+00  0.0000E+00  0.0000E+00  0.0000E+00  0.0000E+00  0.0000E+00  0.0000E+00  0.0000E+00  0.0000E+00
      0.167  0.0000E+00  0.0000E+00  0.0000E+00  0.0000E+00  0.0000E+00  0.0000E+00  0.0000E+00  0.0000E+00  0.0000E+00  0.0000E+00  0.0000E+00  0.0000E+00  0.0000E+00  0.0000E+00  0.0000E+00  0.0000E+00  0.0000E+00  0.0000E+00
      0.293  0.0000E+00  0.0000E+00  0.0000E+00  0.0000E+00  0.0000E+00  0.0000E+00  0.0000E+00  0.0000E+00  0.0000E+00  0.0000E+00  0.0000E+00  0.0000E+00  0.0000E+00  0.0000E+00  0.0000E+00  0.0000E+00  0.0000E+00  0.0000E+00
      0.418  0.0000E+00  0.0000E+00  0.0000E+00  0.0000E+00  0.0000E+00  0.0000E+00  0.0000E+00  0.0000E+00  0.0000E+00  0.0000E+00  0.0000E+00  0.0000E+00  0.0000E+00  0.0000E+00  0.0000E+00  0.0000E+00  0.0000E+00  0.0000E+00
      0.544  0.0000E+00  0.0000E+00  0.0000E+00  0.0000E+00  0.0000E+00  0.0000E+00  0.0000E+00  0.0000E+00  0.0000E+00  0.0000E+00  0.0000E+00  0.0000E+00  0.0000E+00  0.0000E+00  0.0000E+00  0.0000E+00  0.0000E+00  0.0000E+00
      0.670  0.0000E+00  0.0000E+00  0.0000E+00  0.0000E+00  0.0000E+00  0.0000E+00  0.0000E+00  0.0000E+00  0.0000E+00  0.0000E+00  0.0000E+00  0.0000E+00  0.0000E+00  0.0000E+00  0.0000E+00  0.0000E+00  0.0000E+00  0.0000E+00
      0.796  0.0000E+00  0.0000E+00  0.0000E+00  0.0000E+00  0.0000E+00  0.0000E+00  0.0000E+00  0.0000E+00  0.0000E+00  0.0000E+00  0.0000E+00  0.0000E+00  0.0000E+00  0.0000E+00  0.0000E+00  0.0000E+00  0.0000E+00  0.0000E+00
      0.922  0.0000E+00  0.0000E+00  0.0000E+00  0.0000E+00  0.0000E+00  0.0000E+00  0.0000E+00  0.0000E+00  0.0000E+00  0.0000E+00  0.0000E+00  0.0000E+00  0.0000E+00  0.0000E+00  0.0000E+00  0.0000E+00  0.0000E+00  0.0000E+00
      1.047  0.0000E+00  0.0000E+00  0.0000E+00  0.0000E+00  0.0000E+00  0.0000E+00  0.0000E+00  0.0000E+00  0.0000E+00  0.0000E+00  0.0000E+00  0.0000E+00  0.0000E+00  0.0000E+00  0.0000E+00  0.0000E+00  0.0000E+00  0.0000E+00
      1.173  0.0000E+00  0.0000E+00  0.0000E+00  0.0000E+00  0.0000E+00  0.0000E+00  0.0000E+00  0.0000E+00  0.0000E+00  0.0000E+00  0.0000E+00  0.0000E+00  0.0000E+00  0.0000E+00  0.0000E+00  0.0000E+00  0.0000E+00  0.0000E+00
      1.299  0.3802E-12  0.2796E-11  0.2724E-28  0.4750E-27  0.2129E-20  0.3207E-19  0.2724E-28  0.4750E-27  0.2224E-26  0.7312E-25  0.3607E-23  0.9945E-25  0.3926E-18  0.1771E-17  0.3607E-23  0.9945E-25  0.2224E-26  0.7312E-25
      1.425  0.4624E-05  0.1133E-04  0.1108E-14  0.8541E-14  0.2840E-10  0.1253E-09  0.1108E-14  0.8541E-14  0.1116E-16  0.6432E-16  0.4383E-16  0.4088E-18  0.4909E-11  0.7630E-11  0.4383E-16  0.4088E-18  0.1116E-16  0.6432E-16
      1.550  0.1091E-02  0.1329E-02  0.5279E-07  0.1407E-06  0.1931E-05  0.3056E-05  0.5279E-07  0.1407E-06  0.5302E-09  0.1054E-08  0.4419E-12  0.1521E-11  0.1076E-07  0.1289E-07  0.4419E-12  0.1521E-11  0.5302E-09  0.1054E-08
      1.676  0.6705E-02  0.7630E-02  0.3284E-04  0.4067E-04  0.1677E-04  0.1999E-04  0.3284E-04  0.4067E-04  0.3302E-06  0.3053E-06  0.1033E-06  0.1339E-06  0.2997E-06  0.2384E-06  0.1033E-06  0.1339E-06  0.3302E-06  0.3053E-06
      1.802  0.1288E-01  0.1203E-01  0.7887E-04  0.7223E-04  0.9692E-04  0.9952E-04  0.7887E-04  0.7223E-04  0.7975E-06  0.5446E-06  0.1192E-05  0.8650E-06  0.8661E-06  0.7250E-06  0.1192E-05  0.8650E-06  0.7975E-06  0.5446E-06
      1.928  0.8397E-02  0.1005E-01  0.8704E-04  0.1104E-03  0.1516E-03  0.1798E-03  0.8704E-04  0.1104E-03  0.1951E-05  0.1855E-05  0.2355E-05  0.2260E-05  0.3717E-05  0.3207E-05  0.2355E-05  0.2260E-05  0.1951E-05  0.1855E-05
      2.054  0.2142E-01  0.2036E-01  0.3584E-03  0.3591E-03  0.2425E-03  0.2135E-03  0.3584E-03  0.3591E-03  0.1061E-04  0.8114E-05  0.6998E-05  0.4900E-05  0.8057E-05  0.5681E-05  0.6998E-05  0.4900E-05  0.1061E-04  0.8114E-05
      2.179  0.1795E-01  0.1828E-01  0.4176E-03  0.4249E-03  0.2355E-03  0.2629E-03  0.4176E-03  0.4249E-03  0.1756E-04  0.1290E-04  0.9511E-05  0.7971E-05  0.1511E-04  0.1087E-04  0.9511E-05  0.7971E-05  0.1756E-04  0.1290E-04
      2.305  0.2011E-01  0.1988E-01  0.3082E-03  0.3015E-03  0.8240E-03  0.8461E-03  0.3082E-03  0.3015E-03  0.9764E-05  0.6904E-05  0.2781E-04  0.2085E-04  0.3139E-04  0.2324E-04  0.2781E-04  0.2085E-04  0.9764E-05  0.6904E-05
      2.431  0.1242E-01  0.1176E-01  0.3280E-03  0.3292E-03  0.3659E-03  0.3259E-03  0.3280E-03  0.3292E-03  0.1738E-04  0.1285E-04  0.2202E-04  0.1501E-04  0.1165E-04  0.7662E-05  0.2202E-04  0.1501E-04  0.1738E-04  0.1285E-04
      2.557  0.3181E-01  0.3236E-01  0.1304E-02  0.1336E-02  0.5763E-03  0.6053E-03  0.1304E-02  0.1336E-02  0.9608E-04  0.7028E-04  0.4498E-04  0.3389E-04  0.7382E-04  0.5285E-04  0.4498E-04  0.3389E-04  0.9608E-04  0.7028E-04
      2.683  0.2017E-01  0.1927E-01  0.6412E-03  0.6132E-03  0.9624E-03  0.9482E-03  0.6412E-03  0.6132E-03  0.4500E-04  0.3006E-04  0.6553E-04  0.4609E-04  0.6718E-04  0.4492E-04  0.6553E-04  0.4609E-04  0.4500E-04  0.3006E-04
      2.808  0.4226E-01  0.4210E-01  0.1725E-02  0.1737E-02  0.1760E-02  0.1785E-02  0.1725E-02  0.1737E-02  0.1664E-03  0.1154E-03  0.1331E-03  0.9457E-04  0.2018E-03  0.1384E-03  0.1331E-03  0.9457E-04  0.1664E-03  0.1154E-03
      2.934  0.5007E-02  0.4754E-02  0.2666E-03  0.2618E-03  0.1500E-03  0.1232E-03  0.2666E-03  0.2618E-03  0.3235E-04  0.2152E-04  0.1885E-04  0.1067E-04  0.2300E-04  0.1483E-04  0.1885E-04  0.1067E-04  0.3235E-04  0.2152E-04
      3.060  0.3182E-01  0.3017E-01  0.1405E-02  0.1346E-02  0.2139E-02  0.2053E-02  0.1405E-02  0.1346E-02  0.1462E-03  0.9465E-04  0.2755E-03  0.1803E-03  0.1287E-03  0.8560E-04  0.2755E-03  0.1803E-03  0.1462E-03  0.9465E-04
      3.186  0.2971E-01  0.2969E-01  0.1651E-02  0.1617E-02  0.1662E-02  0.1774E-02  0.1651E-02  0.1617E-02  0.2091E-03  0.1343E-03  0.1819E-03  0.1407E-03  0.2650E-03  0.1593E-03  0.1819E-03  0.1407E-03  0.2091E-03  0.1343E-03
      3.311  0.4296E-01  0.3809E-01  0.2942E-02  0.2724E-02  0.1947E-02  0.1601E-02  0.2942E-02  0.2724E-02  0.5243E-03  0.3212E-03  0.2202E-03  0.1175E-03  0.6442E-03  0.3654E-03  0.2202E-03  0.1175E-03  0.5243E-03  0.3212E-03
      3.437  0.2413E-01  0.2572E-01  0.1741E-02  0.1798E-02  0.1256E-02  0.1405E-02  0.1741E-02  0.1798E-02  0.3019E-03  0.2028E-03  0.2719E-03  0.1537E-03  0.2326E-03  0.2113E-03  0.2719E-03  0.1537E-03  0.3019E-03  0.2028E-03
      3.563  0.3810E-01  0.3954E-01  0.2332E-02  0.2546E-02  0.3377E-02  0.3384E-02  0.2332E-02  0.2546E-02  0.4276E-03  0.2862E-03  0.5782E-03  0.4273E-03  0.5215E-03  0.2797E-03  0.5782E-03  0.4273E-03  0.4276E-03  0.2862E-03
      3.689  0.3359E-01  0.2918E-01  0.2447E-02  0.2182E-02  0.2784E-02  0.2363E-02  0.2447E-02  0.2182E-02  0.5783E-03  0.3330E-03  0.5836E-03  0.2682E-03  0.5589E-03  0.3729E-03  0.5836E-03  0.2682E-03  0.5783E-03  0.3330E-03
      3.815  0.3068E-01  0.3313E-01  0.2542E-02  0.2647E-02  0.2267E-02  0.2820E-02  0.2542E-02  0.2647E-02  0.6910E-03  0.3941E-03  0.7843E-03  0.5611E-03  0.3962E-03  0.1977E-03  0.7843E-03  0.5611E-03  0.6910E-03  0.3941E-03
      3.940  0.2135E-01  0.1520E-01  0.1653E-02  0.1270E-02  0.2237E-02  0.1342E-02  0.1653E-02  0.1270E-02  0.4527E-03  0.2387E-03  0.1754E-03  0.1341E-03  0.1463E-02  0.4426E-03  0.1754E-03  0.1341E-03  0.4527E-03  0.2387E-03
      4.066  0.4932E-01  0.4562E-01  0.4627E-02  0.4130E-02  0.4469E-02  0.4530E-02  0.4627E-02  0.4130E-02  0.1329E-02  0.6852E-03  0.1448E-02  0.5614E-03  0.1089E-02  0.1109E-02  0.1448E-02  0.5614E-03  0.1329E-02  0.6852E-03
      4.192  0.6577E-01  0.4936E-01  0.6926E-02  0.5237E-02  0.5274E-02  0.4196E-02  0.6926E-02  0.5237E-02  0.2641E-02  0.1092E-02  0.1894E-02  0.1038E-02  0.2288E-02  0.7457E-03  0.1894E-02  0.1038E-02  0.2641E-02  0.1092E-02
      4.318  0.2809E-01  0.4719E-01  0.2831E-02  0.4802E-02  0.2891E-02  0.4851E-02  0.2831E-02  0.4802E-02  0.1339E-02  0.1094E-02  0.1030E-02  0.8498E-03  0.1475E-02  0.1244E-02  0.1030E-02  0.8498E-03  0.1339E-02  0.1094E-02
      4.443  0.2874E-01  0.2523E-01  0.3292E-02  0.3215E-02  0.2618E-02  0.1799E-02  0.3292E-02  0.3215E-02  0.1590E-02  0.8869E-03  0.1722E-02  0.6196E-03  0.1423E-02  0.5679E-03  0.1722E-02  0.6196E-03  0.1590E-02  0.8869E-03
      4.569  0.5621E-01  0.2377E-01  0.5414E-02  0.2782E-02  0.8279E-02  0.2591E-02  0.5414E-02  0.2782E-02  0.3291E-02  0.7197E-03  0.3575E-02  0.9324E-03  0.4363E-02  0.5043E-03  0.3575E-02  0.9324E-03  0.3291E-02  0.7197E-03
      4.695  0.3065E-01  0.6051E-01  0.3183E-02  0.5978E-02  0.4719E-02  0.9921E-02  0.3183E-02  0.5978E-02  0.1820E-02  0.1857E-02  0.2760E-02  0.2255E-02  0.2223E-02  0.2951E-02  0.2760E-02  0.2255E-02  0.1820E-02  0.1857E-02
      4.821  0.6248E-01  0.2513E-01  0.8249E-02  0.3210E-02  0.7096E-02  0.3195E-02  0.8249E-02  0.3210E-02  0.5814E-02  0.1088E-02  0.5048E-02  0.1260E-02  0.6190E-02  0.6967E-03  0.5048E-02  0.1260E-02  0.5814E-02  0.1088E-02
      4.947  0.4421E-01  0.4511E-01  0.7130E-02  0.6113E-02  0.2701E-02  0.6055E-02  0.7130E-02  0.6113E-02  0.6406E-02  0.1969E-02  0.2549E-02  0.1664E-02  0.7515E-02  0.2823E-02  0.2549E-02  0.1664E-02  0.6406E-02  0.1969E-02
      5.072  0.7641E-01  0.4921E-01  0.1056E-01  0.7847E-02  0.1033E-01  0.4627E-02  0.1056E-01  0.7847E-02  0.1161E-01  0.3173E-02  0.1183E-01  0.2314E-02  0.8032E-02  0.2379E-02  0.1183E-01  0.2314E-02  0.1161E-01  0.3173E-02
      5.198  0.5850E-01  0.3377E-01  0.6845E-02  0.5754E-02  0.9251E-02  0.3375E-02  0.6845E-02  0.5754E-02  0.1285E-01  0.2797E-02  0.1220E-01  0.1470E-02  0.1516E-01  0.2043E-02  0.1220E-01  0.1470E-02  0.1285E-01  0.2797E-02
      5.324  0.5043E-01  0.7840E-01  0.5456E-02  0.1092E-01  0.7288E-02  0.1371E-01  0.5456E-02  0.1092E-01  0.1519E-01  0.5402E-02  0.1906E-01  0.5971E-02  0.2290E-01  0.7025E-02  0.1906E-01  0.5971E-02  0.1519E-01  0.5402E-02
      5.450  0.8374E-01  0.3083E-01  0.8357E-02  0.4596E-02  0.8922E-02  0.5183E-02  0.8357E-02  0.4596E-02  0.5375E-01  0.2744E-02  0.6623E-01  0.3454E-02  0.4655E-01  0.1812E-02  0.6623E-01  0.3454E-02  0.5375E-01  0.2744E-02
      5.576  0.1313E+00  0.4025E-01  0.1960E-01  0.5954E-02  0.1567E-01  0.7237E-02  0.1960E-01  0.5954E-02  0.7084E-01  0.4393E-02  0.7325E-01  0.4078E-02  0.6847E-01  0.5513E-02  0.7325E-01  0.4078E-02  0.7084E-01  0.4393E-02
      5.701  0.7243E-01  0.3444E-01  0.1015E-01  0.5581E-02  0.9040E-02  0.5191E-02  0.1015E-01  0.5581E-02  0.5950E-01  0.5252E-02  0.7155E-01  0.4848E-02  0.5334E-01  0.4395E-02  0.7155E-01  0.4848E-02  0.5950E-01  0.5252E-02
      5.827  0.7126E-01  0.5603E-01  0.1067E-01  0.9280E-02  0.1417E-01  0.1196E-01  0.1067E-01  0.9280E-02  0.9938E-01  0.6522E-02  0.8106E-01  0.8013E-02  0.6845E-01  0.9110E-02  0.8106E-01  0.8013E-02  0.9938E-01  0.6522E-02
      5.953  0.7644E-01  0.7621E-01  0.1326E-01  0.1546E-01  0.1695E-01  0.1194E-01  0.1326E-01  0.1546E-01  0.1262E+00  0.1261E-01  0.1027E+00  0.1114E-01  0.1150E+00  0.1177E-01  0.1027E+00  0.1114E-01  0.1262E+00  0.1261E-01
      6.079  0.4658E-01  0.6941E-01  0.1156E-01  0.1334E-01  0.1340E-01  0.9403E-02  0.1156E-01  0.1334E-01  0.1155E+00  0.1886E-01  0.9353E-01  0.1270E-01  0.7326E-01  0.1712E-01  0.9353E-01  0.1270E-01  0.1155E+00  0.1886E-01