   2   2   0   0
  0.2137190E+02  0.2470000E-09  0.2470000E-09  0.8090000E-09  0.5000000E-15
  1.000000000000000E-004
  CAR 
 Co-hcc                                  
     21.94227933     -4.21578938  301      3.15918500      1.00000000
     -4.216  0.0000E+00  0.0000E+00  0.0000E+00  0.0000E+00
     -4.129  0.0000E+00  0.0000E+00  0.0000E+00  0.0000E+00
     -4.041  0.0000E+00  0.0000E+00  0.0000E+00  0.0000E+00
     -3.954  0.0000E+00  0.0000E+00  0.0000E+00  0.0000E+00
     -3.867  0.0000E+00  0.0000E+00  0.0000E+00  0.0000E+00
     -3.780  0.0000E+00  0.0000E+00  0.0000E+00  0.0000E+00
     -3.693  0.0000E+00  0.0000E+00  0.0000E+00  0.0000E+00
     -3.605  0.0000E+00  0.0000E+00  0.0000E+00  0.0000E+00
     -3.518  0.0000E+00  0.0000E+00  0.0000E+00  0.0000E+00
     -3.431  0.0000E+00  0.0000E+00  0.0000E+00  0.0000E+00
     -3.344  0.0000E+00  0.0000E+00  0.0000E+00  0.0000E+00
     -3.257  0.2204E-12  0.0000E+00  0.1921E-13  0.0000E+00
     -3.169  0.1870E-06  0.0000E+00  0.1630E-07  0.0000E+00
     -3.082  0.5609E-03  0.2280E-16  0.4892E-04  0.1988E-17
     -2.995  0.1347E-01  0.3618E-09  0.1223E-02  0.3155E-10
     -2.908  0.3332E-01  0.1765E-04  0.4128E-02  0.1539E-05
     -2.821  0.1210E+00  0.4038E-02  0.1468E-01  0.3536E-03
     -2.733  0.9549E-01  0.1793E-01  0.2301E-01  0.1917E-02
     -2.646  0.8576E-01  0.6712E-01  0.3048E-01  0.7770E-02
     -2.559  0.1794E+00  0.1027E+00  0.4612E-01  0.1673E-01
     -2.472  0.2218E+00  0.6770E-01  0.6546E-01  0.2263E-01
     -2.385  0.2824E+00  0.8756E-01  0.9009E-01  0.3027E-01
     -2.298  0.1574E+00  0.1580E+00  0.1038E+00  0.4404E-01
     -2.210  0.1541E+00  0.1928E+00  0.1172E+00  0.6085E-01
     -2.123  0.1847E+00  0.2060E+00  0.1333E+00  0.7882E-01
     -2.036  0.2847E+00  0.1855E+00  0.1582E+00  0.9499E-01
     -1.949  0.2695E+00  0.1444E+00  0.1817E+00  0.1076E+00
     -1.862  0.1648E+00  0.1172E+00  0.1960E+00  0.1178E+00
     -1.774  0.2618E+00  0.3000E+00  0.2189E+00  0.1440E+00
     -1.687  0.3052E+00  0.2801E+00  0.2455E+00  0.1684E+00
     -1.600  0.2552E+00  0.2076E+00  0.2677E+00  0.1865E+00
     -1.513  0.1034E+00  0.2280E+00  0.2767E+00  0.2064E+00
     -1.426  0.2051E+00  0.1710E+00  0.2946E+00  0.2213E+00
     -1.338  0.3435E+00  0.1530E+00  0.3246E+00  0.2346E+00
     -1.251  0.3337E+00  0.1716E+00  0.3537E+00  0.2496E+00
     -1.164  0.3635E+00  0.2569E+00  0.3854E+00  0.2720E+00
     -1.077  0.5730E+00  0.2230E+00  0.4353E+00  0.2914E+00
     -0.990  0.6931E+00  0.3341E+00  0.4958E+00  0.3205E+00
     -0.902  0.1699E+01  0.2766E+00  0.6439E+00  0.3447E+00
     -0.815  0.2301E+01  0.1686E+00  0.8445E+00  0.3594E+00
     -0.728  0.2092E+01  0.1944E+00  0.1027E+01  0.3763E+00
     -0.641  0.1895E+01  0.2628E+00  0.1192E+01  0.3992E+00
     -0.554  0.1279E+01  0.2660E+00  0.1304E+01  0.4224E+00
     -0.466  0.9845E+00  0.2660E+00  0.1390E+01  0.4456E+00
     -0.379  0.9916E+00  0.1634E+00  0.1476E+01  0.4598E+00
     -0.292  0.1149E+01  0.2515E+00  0.1576E+01  0.4818E+00
     -0.205  0.9791E+00  0.3924E+00  0.1662E+01  0.5160E+00
     -0.118  0.2704E+01  0.3998E+00  0.1897E+01  0.5509E+00
     -0.030  0.3397E+01  0.2762E+00  0.2194E+01  0.5749E+00
      0.057  0.5297E+01  0.3764E+00  0.2655E+01  0.6078E+00
      0.144  0.4611E+01  0.3951E+00  0.3057E+01  0.6422E+00
      0.231  0.3498E+01  0.5046E+00  0.3362E+01  0.6862E+00
      0.318  0.3434E+01  0.7594E+00  0.3662E+01  0.7524E+00
      0.405  0.2978E+01  0.1864E+01  0.3921E+01  0.9149E+00
      0.493  0.3302E+01  0.2247E+01  0.4209E+01  0.1111E+01
      0.580  0.3870E+01  0.7015E+00  0.4547E+01  0.1172E+01
      0.667  0.3883E+01  0.1194E+01  0.4885E+01  0.1276E+01
      0.754  0.2349E+01  0.1747E+01  0.5090E+01  0.1428E+01
      0.841  0.3202E+01  0.4671E+00  0.5370E+01  0.1469E+01
      0.929  0.3459E+01  0.1097E+00  0.5671E+01  0.1479E+01
      1.016  0.5511E+01  0.6719E+00  0.6152E+01  0.1537E+01
      1.103  0.4173E+01  0.1303E+01  0.6515E+01  0.1651E+01
      1.190  0.6360E+01  0.8674E+00  0.7070E+01  0.1726E+01
      1.277  0.7527E+01  0.4012E+00  0.7726E+01  0.1761E+01
      1.365  0.6403E+01  0.1001E+00  0.8285E+01  0.1770E+01
      1.452  0.5959E+01  0.1049E+01  0.8804E+01  0.1862E+01
      1.539  0.5269E+01  0.1382E+01  0.9264E+01  0.1982E+01
      1.626  0.4773E+01  0.2018E+01  0.9680E+01  0.2158E+01
      1.713  0.2799E+01  0.3494E+01  0.9924E+01  0.2463E+01
      1.801  0.6941E+00  0.5261E+01  0.9984E+01  0.2922E+01
      1.888  0.9521E+00  0.5166E+01  0.1007E+02  0.3372E+01
      1.975  0.1120E+01  0.5300E+01  0.1017E+02  0.3834E+01
      2.062  0.1266E+01  0.4624E+01  0.1028E+02  0.4237E+01
      2.149  0.8936E+00  0.2682E+01  0.1035E+02  0.4471E+01
      2.237  0.1058E+01  0.3267E+01  0.1045E+02  0.4756E+01
      2.324  0.8991E+00  0.2097E+01  0.1052E+02  0.4939E+01
      2.411  0.1129E+01  0.1772E+01  0.1062E+02  0.5093E+01
      2.498  0.3023E+00  0.1979E+01  0.1065E+02  0.5266E+01
      2.585  0.4971E+00  0.1948E+01  0.1069E+02  0.5436E+01
      2.673  0.5053E+00  0.1883E+01  0.1074E+02  0.5600E+01
      2.760  0.5450E+00  0.2111E+01  0.1078E+02  0.5784E+01
      2.847  0.5879E+00  0.3222E+01  0.1084E+02  0.6065E+01
      2.934  0.4047E+00  0.2010E+01  0.1087E+02  0.6240E+01
      3.021  0.2979E+00  0.3354E+01  0.1090E+02  0.6533E+01
      3.108  0.3013E+00  0.4019E+01  0.1092E+02  0.6883E+01
      3.196  0.3904E+00  0.3367E+01  0.1096E+02  0.7177E+01
      3.283  0.4155E+00  0.4547E+01  0.1099E+02  0.7573E+01
      3.370  0.1971E+00  0.5766E+01  0.1101E+02  0.8076E+01
      3.457  0.6293E-01  0.7332E+01  0.1102E+02  0.8715E+01
      3.544  0.1188E+00  0.6767E+01  0.1103E+02  0.9305E+01
      3.632  0.1059E+00  0.4005E+01  0.1104E+02  0.9654E+01
      3.719  0.2008E-01  0.2672E+01  0.1104E+02  0.9887E+01
      3.806  0.2987E+00  0.2856E+01  0.1106E+02  0.1014E+02
      3.893  0.7298E+00  0.3657E+01  0.1113E+02  0.1046E+02
      3.980  0.4861E+00  0.1057E+01  0.1117E+02  0.1055E+02
      4.068  0.3744E+00  0.5945E+00  0.1120E+02  0.1060E+02
      4.155  0.3337E+00  0.5580E+00  0.1123E+02  0.1065E+02
      4.242  0.3805E+00  0.3583E+00  0.1126E+02  0.1068E+02
      4.329  0.4009E+00  0.1042E+01  0.1130E+02  0.1077E+02
      4.416  0.4389E+00  0.1115E+01  0.1134E+02  0.1087E+02
      4.504  0.4401E+00  0.9660E+00  0.1138E+02  0.1095E+02
      4.591  0.3875E+00  0.8948E+00  0.1141E+02  0.1103E+02
      4.678  0.2163E+00  0.4336E+00  0.1143E+02  0.1107E+02
      4.765  0.1425E+00  0.2015E+00  0.1144E+02  0.1108E+02
      4.852  0.2040E+00  0.3359E+00  0.1146E+02  0.1111E+02
      4.940  0.1661E+00  0.4612E+00  0.1147E+02  0.1115E+02
      5.027  0.1736E+00  0.3993E+00  0.1149E+02  0.1119E+02
      5.114  0.1365E+00  0.7021E+00  0.1150E+02  0.1125E+02
      5.201  0.5867E+00  0.7256E+00  0.1155E+02  0.1131E+02
      5.288  0.8393E+00  0.5445E+00  0.1162E+02  0.1136E+02
      5.376  0.5566E+00  0.4870E+00  0.1167E+02  0.1140E+02
      5.463  0.5185E+00  0.5075E+00  0.1172E+02  0.1145E+02
      5.550  0.5257E+00  0.3499E+00  0.1176E+02  0.1148E+02
      5.637  0.5128E+00  0.5318E+00  0.1181E+02  0.1152E+02
      5.724  0.4335E+00  0.3952E+00  0.1185E+02  0.1156E+02
      5.811  0.3641E+00  0.3170E+00  0.1188E+02  0.1159E+02
      5.899  0.4909E+00  0.2744E+00  0.1192E+02  0.1161E+02
      5.986  0.4468E+00  0.4194E+00  0.1196E+02  0.1165E+02
      6.073  0.3329E+00  0.4788E+00  0.1199E+02  0.1169E+02
      6.160  0.7908E-01  0.4911E+00  0.1200E+02  0.1173E+02
      6.247  0.1525E+00  0.6229E+00  0.1201E+02  0.1179E+02
      6.335  0.3317E+00  0.4220E+00  0.1204E+02  0.1182E+02
      6.422  0.3451E+00  0.4630E+00  0.1207E+02  0.1186E+02
      6.509  0.2907E+00  0.4295E+00  0.1209E+02  0.1190E+02
      6.596  0.1828E+00  0.5253E+00  0.1211E+02  0.1195E+02
      6.683  0.2001E+00  0.2499E+00  0.1213E+02  0.1197E+02
      6.771  0.4142E+00  0.3574E+00  0.1216E+02  0.1200E+02
      6.858  0.6312E+00  0.4846E+00  0.1222E+02  0.1204E+02
      6.945  0.4437E+00  0.4257E+00  0.1226E+02  0.1208E+02
      7.032  0.4000E+00  0.3315E+00  0.1229E+02  0.1211E+02
      7.119  0.3110E+00  0.1591E+00  0.1232E+02  0.1212E+02
      7.207  0.3894E+00  0.1481E+00  0.1235E+02  0.1213E+02
      7.294  0.4768E+00  0.2363E+00  0.1239E+02  0.1216E+02
      7.381  0.3907E+00  0.4480E+00  0.1243E+02  0.1219E+02
      7.468  0.2653E+00  0.4238E+00  0.1245E+02  0.1223E+02
      7.555  0.2482E+00  0.4745E+00  0.1247E+02  0.1227E+02
      7.643  0.2647E+00  0.4796E+00  0.1250E+02  0.1231E+02
      7.730  0.1713E+00  0.3935E+00  0.1251E+02  0.1235E+02
      7.817  0.2687E+00  0.3906E+00  0.1253E+02  0.1238E+02
      7.904  0.1901E+00  0.3895E+00  0.1255E+02  0.1242E+02
      7.991  0.3817E+00  0.4869E+00  0.1258E+02  0.1246E+02
      8.079  0.1595E+00  0.1923E+00  0.1260E+02  0.1248E+02
      8.166  0.1559E+00  0.1158E+00  0.1261E+02  0.1249E+02
      8.253  0.3256E+00  0.2852E+00  0.1264E+02  0.1251E+02
      8.340  0.3462E+00  0.4537E+00  0.1267E+02  0.1255E+02
      8.427  0.3802E+00  0.3979E+00  0.1270E+02  0.1259E+02
      8.514  0.3164E+00  0.2761E+00  0.1273E+02  0.1261E+02
      8.602  0.2965E+00  0.1571E+00  0.1276E+02  0.1262E+02
      8.689  0.2888E+00  0.1252E+00  0.1278E+02  0.1263E+02
      8.776  0.3137E+00  0.3750E+00  0.1281E+02  0.1267E+02
      8.863  0.3529E+00  0.3543E+00  0.1284E+02  0.1270E+02
      8.950  0.2535E+00  0.3937E+00  0.1286E+02  0.1273E+02
      9.038  0.2203E+00  0.2381E+00  0.1288E+02  0.1275E+02
      9.125  0.1688E+00  0.3225E+00  0.1290E+02  0.1278E+02
      9.212  0.1178E+00  0.2626E+00  0.1291E+02  0.1280E+02
      9.299  0.3635E+00  0.4067E+00  0.1294E+02  0.1284E+02
      9.386  0.4653E+00  0.2934E+00  0.1298E+02  0.1286E+02
      9.474  0.3840E+00  0.1598E+00  0.1301E+02  0.1288E+02
      9.561  0.4812E+00  0.2372E+00  0.1305E+02  0.1290E+02
      9.648  0.6652E+00  0.2994E+00  0.1311E+02  0.1293E+02
      9.735  0.4710E+00  0.3027E+00  0.1315E+02  0.1295E+02
      9.822  0.4932E+00  0.2736E+00  0.1320E+02  0.1298E+02
      9.910  0.3689E+00  0.2613E+00  0.1323E+02  0.1300E+02
      9.997  0.3325E+00  0.3796E+00  0.1326E+02  0.1303E+02
     10.084  0.7402E+00  0.3660E+00  0.1332E+02  0.1306E+02
     10.171  0.7196E+00  0.4416E+00  0.1338E+02  0.1310E+02
     10.258  0.6412E+00  0.3386E+00  0.1344E+02  0.1313E+02
     10.346  0.3843E+00  0.6673E+00  0.1347E+02  0.1319E+02
     10.433  0.2471E+00  0.6725E+00  0.1350E+02  0.1325E+02
     10.520  0.5869E+00  0.6765E+00  0.1355E+02  0.1331E+02
     10.607  0.6486E+00  0.3350E+00  0.1360E+02  0.1334E+02
     10.694  0.3940E+00  0.2546E+00  0.1364E+02  0.1336E+02
     10.782  0.3245E+00  0.5866E+00  0.1367E+02  0.1341E+02
     10.869  0.4256E+00  0.6372E+00  0.1370E+02  0.1347E+02
     10.956  0.4713E+00  0.4623E+00  0.1374E+02  0.1351E+02
     11.043  0.4709E+00  0.3847E+00  0.1379E+02  0.1354E+02
     11.130  0.5295E+00  0.3948E+00  0.1383E+02  0.1357E+02
     11.217  0.4761E+00  0.8057E+00  0.1387E+02  0.1364E+02
     11.305  0.5701E+00  0.7744E+00  0.1392E+02  0.1371E+02
     11.392  0.7241E+00  0.3866E+00  0.1399E+02  0.1375E+02
     11.479  0.5452E+00  0.3194E+00  0.1403E+02  0.1377E+02
     11.566  0.3291E+00  0.4477E+00  0.1406E+02  0.1381E+02
     11.653  0.4468E+00  0.4815E+00  0.1410E+02  0.1385E+02
     11.741  0.5604E+00  0.5401E+00  0.1415E+02  0.1390E+02
     11.828  0.4516E+00  0.6412E+00  0.1419E+02  0.1396E+02
     11.915  0.6268E+00  0.5218E+00  0.1424E+02  0.1400E+02
     12.002  0.5537E+00  0.6307E+00  0.1429E+02  0.1406E+02
     12.089  0.3749E+00  0.6595E+00  0.1432E+02  0.1411E+02
     12.177  0.7317E+00  0.5968E+00  0.1439E+02  0.1417E+02
     12.264  0.9220E+00  0.3150E+00  0.1447E+02  0.1419E+02
     12.351  0.7720E+00  0.5937E+00  0.1454E+02  0.1425E+02
     12.438  0.5590E+00  0.7235E+00  0.1459E+02  0.1431E+02
     12.525  0.3854E+00  0.6843E+00  0.1462E+02  0.1437E+02
     12.613  0.5847E+00  0.4957E+00  0.1467E+02  0.1441E+02
     12.700  0.4364E+00  0.8081E+00  0.1471E+02  0.1448E+02
     12.787  0.4969E+00  0.4973E+00  0.1475E+02  0.1453E+02
     12.874  0.4346E+00  0.5338E+00  0.1479E+02  0.1457E+02
     12.961  0.5785E+00  0.7743E+00  0.1484E+02  0.1464E+02
     13.049  0.4248E+00  0.6159E+00  0.1488E+02  0.1469E+02
     13.136  0.6144E+00  0.3982E+00  0.1493E+02  0.1473E+02
     13.223  0.4488E+00  0.3894E+00  0.1497E+02  0.1476E+02
     13.310  0.5136E+00  0.5442E+00  0.1501E+02  0.1481E+02
     13.397  0.6100E+00  0.6840E+00  0.1507E+02  0.1487E+02
     13.485  0.5230E+00  0.6672E+00  0.1511E+02  0.1493E+02
     13.572  0.4218E+00  0.4367E+00  0.1515E+02  0.1497E+02
     13.659  0.2066E+00  0.4216E+00  0.1517E+02  0.1500E+02
     13.746  0.2640E+00  0.4819E+00  0.1519E+02  0.1504E+02
     13.833  0.2588E+00  0.4162E+00  0.1521E+02  0.1508E+02
     13.920  0.2847E+00  0.4559E+00  0.1524E+02  0.1512E+02
     14.008  0.3992E+00  0.4131E+00  0.1527E+02  0.1516E+02
     14.095  0.4123E+00  0.2377E+00  0.1531E+02  0.1518E+02
     14.182  0.2601E+00  0.2664E+00  0.1533E+02  0.1520E+02
     14.269  0.3307E+00  0.4424E+00  0.1536E+02  0.1524E+02
     14.356  0.1134E+00  0.4359E+00  0.1537E+02  0.1528E+02
     14.444  0.1342E+00  0.2911E+00  0.1538E+02  0.1530E+02
     14.531  0.1019E+00  0.2624E+00  0.1539E+02  0.1533E+02
     14.618  0.2376E+00  0.1896E+00  0.1541E+02  0.1534E+02
     14.705  0.2489E+00  0.2837E+00  0.1543E+02  0.1537E+02
     14.792  0.3321E+00  0.1567E+00  0.1546E+02  0.1538E+02
     14.880  0.2213E+00  0.1363E+00  0.1548E+02  0.1539E+02
     14.967  0.2269E+00  0.3071E+00  0.1550E+02  0.1542E+02
     15.054  0.1118E+00  0.2919E+00  0.1551E+02  0.1544E+02
     15.141  0.2570E+00  0.2622E+00  0.1553E+02  0.1547E+02
     15.228  0.1726E+00  0.1077E+00  0.1555E+02  0.1548E+02
     15.316  0.1341E+00  0.1579E+00  0.1556E+02  0.1549E+02
     15.403  0.1650E+00  0.2368E+00  0.1557E+02  0.1551E+02
     15.490  0.3124E+00  0.2278E+00  0.1560E+02  0.1553E+02
     15.577  0.3311E+00  0.1603E+00  0.1563E+02  0.1554E+02
     15.664  0.2171E+00  0.1203E+00  0.1565E+02  0.1556E+02
     15.752  0.7973E-01  0.2362E+00  0.1566E+02  0.1558E+02
     15.839  0.3145E-01  0.3188E+00  0.1566E+02  0.1560E+02
     15.926  0.1770E-01  0.2678E+00  0.1566E+02  0.1563E+02
     16.013  0.1058E+00  0.1880E+00  0.1567E+02  0.1564E+02
     16.100  0.4281E-01  0.1750E+00  0.1567E+02  0.1566E+02
     16.188  0.1600E+00  0.1038E+00  0.1569E+02  0.1567E+02
     16.275  0.4239E-01  0.6783E-01  0.1569E+02  0.1567E+02
     16.362  0.7772E-01  0.3747E-01  0.1570E+02  0.1568E+02
     16.449  0.8111E-01  0.6380E-01  0.1571E+02  0.1568E+02
     16.536  0.3260E+00  0.1337E+00  0.1573E+02  0.1569E+02
     16.623  0.2691E+00  0.1006E+00  0.1576E+02  0.1570E+02
     16.711  0.5065E-01  0.5583E-01  0.1576E+02  0.1571E+02
     16.798  0.5338E-01  0.5713E-01  0.1577E+02  0.1571E+02
     16.885  0.1007E+00  0.1166E+00  0.1577E+02  0.1572E+02
     16.972  0.3751E-01  0.2869E+00  0.1578E+02  0.1575E+02
     17.059  0.1061E+00  0.2542E+00  0.1579E+02  0.1577E+02
     17.147  0.1703E+00  0.8929E-01  0.1580E+02  0.1578E+02
     17.234  0.1378E+00  0.4872E-01  0.1581E+02  0.1578E+02
     17.321  0.4364E-01  0.4457E-01  0.1582E+02  0.1579E+02
     17.408  0.3438E-01  0.1452E+00  0.1582E+02  0.1580E+02
     17.495  0.1149E+00  0.1441E+00  0.1583E+02  0.1581E+02
     17.583  0.7908E-01  0.9803E-01  0.1584E+02  0.1582E+02
     17.670  0.2528E-02  0.8087E-01  0.1584E+02  0.1583E+02
     17.757  0.3323E-01  0.7952E-01  0.1584E+02  0.1583E+02
     17.844  0.2127E+00  0.4977E-01  0.1586E+02  0.1584E+02
     17.931  0.1338E+00  0.6678E-01  0.1587E+02  0.1584E+02
     18.019  0.3105E-01  0.7186E-01  0.1587E+02  0.1585E+02
     18.106  0.7769E-01  0.4937E-02  0.1588E+02  0.1585E+02
     18.193  0.2671E+00  0.1252E+00  0.1590E+02  0.1586E+02
     18.280  0.4516E-01  0.1922E+00  0.1591E+02  0.1588E+02
     18.367  0.6996E-01  0.2704E-01  0.1591E+02  0.1588E+02
     18.455  0.9569E-01  0.4534E-01  0.1592E+02  0.1588E+02
     18.542  0.1110E-01  0.2456E+00  0.1592E+02  0.1591E+02
     18.629  0.1609E-01  0.1885E+00  0.1592E+02  0.1592E+02
     18.716  0.8393E-01  0.5379E-01  0.1593E+02  0.1593E+02
     18.803  0.3560E-01  0.4371E-01  0.1594E+02  0.1593E+02
     18.891  0.9469E-02  0.5118E-01  0.1594E+02  0.1594E+02
     18.978  0.7589E-01  0.4551E-01  0.1594E+02  0.1594E+02
     19.065  0.4414E-01  0.4705E-01  0.1595E+02  0.1594E+02
     19.152  0.1044E+00  0.5389E-01  0.1596E+02  0.1595E+02
     19.239  0.1798E-01  0.1115E-01  0.1596E+02  0.1595E+02
     19.326  0.9858E-01  0.1812E-01  0.1597E+02  0.1595E+02
     19.414  0.9881E-01  0.5697E-01  0.1597E+02  0.1596E+02
     19.501  0.3354E-01  0.9637E-01  0.1598E+02  0.1596E+02
     19.588  0.7445E-01  0.5728E-01  0.1598E+02  0.1597E+02
     19.675  0.5784E-02  0.6625E-01  0.1598E+02  0.1598E+02
     19.762  0.1298E-01  0.9901E-01  0.1599E+02  0.1598E+02
     19.850  0.3057E-01  0.2363E-01  0.1599E+02  0.1599E+02
     19.937  0.1366E-01  0.4304E-01  0.1599E+02  0.1599E+02
     20.024  0.3098E-01  0.2941E-01  0.1599E+02  0.1599E+02
     20.111  0.2567E-02  0.8895E-03  0.1599E+02  0.1599E+02
     20.198  0.3097E-01  0.5932E-03  0.1599E+02  0.1599E+02
     20.286  0.2806E-01  0.3206E-01  0.1600E+02  0.1600E+02
     20.373  0.6917E-02  0.3389E-01  0.1600E+02  0.1600E+02
     20.460  0.3349E-04  0.6519E-03  0.1600E+02  0.1600E+02
     20.547  0.1782E-08  0.6655E-07  0.1600E+02  0.1600E+02
     20.634  0.4852E-04  0.8635E-05  0.1600E+02  0.1600E+02
     20.722  0.7780E-02  0.4133E-02  0.1600E+02  0.1600E+02
     20.809  0.1415E-01  0.1695E-01  0.1600E+02  0.1600E+02
     20.896  0.4207E-03  0.1305E-02  0.1600E+02  0.1600E+02
     20.983  0.6131E-07  0.6100E-06  0.1600E+02  0.1600E+02
     21.070  0.2632E-13  0.8888E-12  0.1600E+02  0.1600E+02
     21.158  0.0000E+00  0.0000E+00  0.1600E+02  0.1600E+02
     21.245  0.0000E+00  0.0000E+00  0.1600E+02  0.1600E+02
     21.332  0.0000E+00  0.0000E+00  0.1600E+02  0.1600E+02
     21.419  0.0000E+00  0.0000E+00  0.1600E+02  0.1600E+02
     21.506  0.0000E+00  0.0000E+00  0.1600E+02  0.1600E+02
     21.594  0.0000E+00  0.0000E+00  0.1600E+02  0.1600E+02
     21.681  0.0000E+00  0.0000E+00  0.1600E+02  0.1600E+02
     21.768  0.0000E+00  0.0000E+00  0.1600E+02  0.1600E+02
     21.855  0.0000E+00  0.0000E+00  0.1600E+02  0.1600E+02
     21.942  0.0000E+00  0.0000E+00  0.1600E+02  0.1600E+02
