    2    2    1    2
  0.2137190E+02  0.2470000E-09  0.2470000E-09  0.8090000E-09  0.5000000E-15
  1.000000000000000E-004
  CAR 
 Co-hcc                                  
     18    210     16
 
  0.0000000E+00  0.0000000E+00  0.0000000E+00  0.3255208E-03
      1         -3.026786       -2.808540   1.000000   1.000000
      2         -2.560707       -2.162155   1.000000   1.000000
      3         -0.100534        1.576070   1.000000   1.000000
      4          0.783050        2.179652   1.000000   1.000000
      5          0.783051        2.545672   1.000000   1.000000
      6          0.783946        2.545672   1.000000   1.000000
      7          0.783948        2.546923   1.000000   1.000000
      8          0.924691        2.546924   1.000000   1.000000
      9          1.683865        2.786738   1.000000   1.000000
     10          1.683866        3.897315   1.000000   0.000000
     11          1.686770        3.897316   1.000000   0.000000
     12          1.686771        3.901209   1.000000   0.000000
     13          2.196871        3.901210   1.000000   0.000000
     14          6.470238        6.673176   0.000000   0.000000
     15         10.899433       11.235010   0.000000   0.000000
     16         18.826466       18.775295   0.000000   0.000000
 
  0.6250000E-01 -0.6938894E-17  0.0000000E+00  0.1953125E-02
      1         -2.883198       -2.664059   1.000000   1.000000
      2         -2.421591       -2.016177   1.000000   1.000000
      3         -0.055959        1.633743   1.000000   1.000000
      4          0.738723        2.153076   1.000000   1.000000
      5          0.739943        2.489771   1.000000   1.000000
      6          0.844816        2.491350   1.000000   1.000000
      7          0.845548        2.613896   1.000000   1.000000
      8          0.957500        2.614920   1.000000   1.000000
      9          1.378097        2.818438   1.000000   1.000000
     10          1.567574        3.704504   1.000000   0.000000
     11          1.671215        3.882313   1.000000   0.000000
     12          1.674785        3.887168   1.000000   0.000000
     13          2.598835        4.012008   1.000000   0.000000
     14          6.700706        6.977118   0.000000   0.000000
     15         10.984851       11.308443   0.000000   0.000000
     16         18.991543       18.947837   0.000000   0.000000
 
  0.1250000E+00 -0.1387779E-16  0.0000000E+00  0.1953125E-02
      1         -2.464864       -2.239190   1.000000   1.000000
      2         -2.022996       -1.590328   1.000000   1.000000
      3          0.071562        1.793838   1.000000   1.000000
      4          0.625358        2.074746   1.000000   1.000000
      5          0.628096        2.342735   1.000000   1.000000
      6          0.972770        2.348548   1.000000   1.000000
      7          1.023033        2.811003   1.000000   1.000000
      8          1.024029        2.812420   1.000000   1.000000
      9          1.058385        2.909533   1.000000   1.000000
     10          1.276878        3.285465   1.000000   0.000177
     11          1.635455        3.839993   1.000000   0.000000
     12          1.640486        3.846928   1.000000   0.000000
     13          3.289378        4.350363   0.000116   0.000000
     14          7.333891        7.729536   0.000000   0.000000
     15         11.244007       11.532552   0.000000   0.000000
     16         19.479420       19.455811   0.000000   0.000000
 
  0.1875000E+00 -0.1387779E-16  0.0000000E+00  0.1953125E-02
      1         -1.826990       -1.566114   1.000000   1.000000
      2         -1.446369       -0.931968   1.000000   1.000000
      3          0.264829        1.955364   1.000000   1.000000
      4          0.517167        1.965847   1.000000   1.000000
      5          0.522479        2.173434   1.000000   1.000000
      6          0.614801        2.243111   1.000000   1.000000
      7          0.917400        2.831523   1.000000   1.000000
      8          1.242322        3.049592   1.000000   0.999032
      9          1.298356        3.116864   1.000000   0.884352
     10          1.299238        3.118186   1.000000   0.876902
     11          1.582379        3.777302   1.000000   0.000000
     12          1.589250        3.786851   1.000000   0.000000
     13          4.138904        4.925040   0.000000   0.000000
     14          8.263745        8.738603   0.000000   0.000000
     15         11.682505       11.916240   0.000000   0.000000
     16         20.267835       20.271020   0.000000   0.000000
 
  0.2500000E+00 -0.2775558E-16  0.0000000E+00  0.1953125E-02
      1         -1.167943       -0.734143   1.000000   1.000000
      2         -0.939753       -0.183401   1.000000   1.000000
      3          0.313730        1.816840   1.000000   1.000000
      4          0.524451        1.946102   1.000000   1.000000
      5          0.565900        2.141180   1.000000   1.000000
      6          0.588995        2.422904   1.000000   1.000000
      7          0.614791        2.461467   1.000000   1.000000
      8          1.520479        3.226348   1.000000   0.028739
      9          1.529153        3.496248   1.000000   0.000000
     10          1.588562        3.497445   1.000000   0.000000
     11          1.637595        3.704315   1.000000   0.000000
     12          1.638375        3.716443   1.000000   0.000000
     13          5.156282        5.738168   0.000000   0.000000
     14          9.409469        9.919822   0.000000   0.000000
     15         12.292878       12.460416   0.000000   0.000000
     16         17.820525       18.214986   0.000000   0.000000
 
  0.3125000E+00  0.0000000E+00  0.0000000E+00  0.1953125E-02
      1         -0.882719       -0.001407   1.000000   1.000000
      2         -0.801162        0.315173   1.000000   1.000000
      3          0.074383        1.684728   1.000000   1.000000
      4          0.264645        2.088432   1.000000   1.000000
      5          0.757541        2.171082   1.000000   1.000000
      6          0.884189        2.551617   1.000000   1.000000
      7          1.374948        2.797286   1.000000   1.000000
      8          1.459029        3.454463   1.000000   0.000000
      9          1.469352        3.631961   1.000000   0.000000
     10          1.994210        3.646455   1.000000   0.000000
     11          1.994969        3.898364   1.000000   0.000000
     12          2.337712        3.899530   1.000000   0.000000
     13          6.354252        6.786442   0.000000   0.000000
     14         10.710167       11.224455   0.000000   0.000000
     15         12.948120       13.078876   0.000000   0.000000
     16         15.067566       15.510342   0.000000   0.000000
 
  0.3750000E+00 -0.2775558E-16  0.0000000E+00  0.1953125E-02
      1         -0.906093        0.298569   1.000000   1.000000
      2         -0.875653        0.413438   1.000000   1.000000
      3         -0.097650        1.581710   1.000000   1.000000
      4          0.035389        1.838823   1.000000   1.000000
      5          0.960656        2.871271   1.000000   1.000000
      6          1.109898        3.181204   1.000000   0.266709
      7          1.407291        3.295483   1.000000   0.000058
      8          1.418979        3.571135   1.000000   0.000000
      9          2.312488        3.587583   1.000000   0.000000
     10          2.312954        4.025597   1.000000   0.000000
     11          2.695063        4.260644   1.000000   0.000000
     12          3.571656        4.261376   0.000000   0.000000
     13          7.736988        8.060355   0.000000   0.000000
     14         12.045369       12.530795   0.000000   0.000000
     15         12.224596       12.709636   0.000000   0.000000
     16         13.028577       13.476298   0.000000   0.000000
 
  0.4375000E+00 -0.5551115E-16  0.0000000E+00  0.1953125E-02
      1         -0.978589        0.330038   1.000000   1.000000
      2         -0.966690        0.369703   1.000000   1.000000
      3         -0.198633        1.522546   1.000000   1.000000
      4         -0.110188        1.678939   1.000000   1.000000
      5          1.104690        3.198361   1.000000   0.133915
      6          1.222404        3.396354   1.000000   0.000000
      7          1.372860        3.530684   1.000000   0.000000
      8          1.385533        3.548541   1.000000   0.000000
      9          2.534221        4.436613   1.000000   0.000000
     10          2.534323        4.515191   1.000000   0.000000
     11          4.207352        4.515306   0.000000   0.000000
     12          4.929188        5.101536   0.000000   0.000000
     13          9.278714        9.525829   0.000000   0.000000
     14         10.216756       10.901484   0.000000   0.000000
     15         11.159059       11.861813   0.000000   0.000000
     16         12.600404       12.895826   0.000000   0.000000
 
  0.5000000E+00 -0.5551115E-16  0.0000000E+00  0.9765625E-03
      1         -1.008150        0.324434   1.000000   1.000000
      2         -1.003897        0.340012   1.000000   1.000000
      3         -0.230427        1.506784   1.000000   1.000000
      4         -0.161243        1.620802   1.000000   1.000000
      5          1.158728        3.290752   1.000000   0.000099
      6          1.254791        3.435002   1.000000   0.000000
      7          1.360913        3.516665   1.000000   0.000000
      8          1.373942        3.535015   1.000000   0.000000
      9          2.613904        4.607088   1.000000   0.000000
     10          2.614111        4.607352   1.000000   0.000000
     11          5.192433        5.226374   0.000000   0.000000
     12          5.538405        5.599030   0.000000   0.000000
     13          9.279700       10.086579   0.000000   0.000000
     14         10.089901       10.734883   0.000000   0.000000
     15         10.524220       10.943742   0.000000   0.000000
     16         11.660333       11.861320   0.000000   0.000000
 
  0.6250000E-01  0.6250000E-01  0.0000000E+00  0.1953125E-02
      1         -2.601526       -2.379064   1.000000   1.000000
      2         -2.151663       -1.729727   1.000000   1.000000
      3          0.030312        1.744242   1.000000   1.000000
      4          0.654172        2.100956   1.000000   1.000000
      5          0.655324        2.383104   1.000000   1.000000
      6          0.958465        2.384763   1.000000   1.000000
      7          0.971186        2.751612   1.000000   1.000000
      8          1.035609        2.752975   1.000000   1.000000
      9          1.079182        2.879826   1.000000   1.000000
     10          1.367666        3.409024   1.000000   0.000000
     11          1.645350        3.851647   1.000000   0.000000
     12          1.648705        3.856230   1.000000   0.000000
     13          3.089242        4.239067   0.976052   0.000000
     14          7.131145        7.497665   0.000000   0.000000
     15         11.157313       11.457398   0.000000   0.000000
     16         19.318146       19.288236   0.000000   0.000000
 
  0.1250000E+00  0.6250000E-01  0.0000000E+00  0.3906250E-02
      1         -2.065317       -1.826911   1.000000   1.000000
      2         -1.652336       -1.182038   1.000000   1.000000
      3          0.192129        1.938673   1.000000   1.000000
      4          0.517508        2.004545   1.000000   1.000000
      5          0.519970        2.204543   1.000000   1.000000
      6          0.741082        2.215247   1.000000   1.000000
      7          1.054291        2.993152   1.000000   0.999999
      8          1.106844        2.998091   1.000000   0.999997
      9          1.215408        3.019188   1.000000   0.999962
     10          1.271774        3.021500   1.000000   0.999951
     11          1.594881        3.791507   1.000000   0.000000
     12          1.599688        3.798131   1.000000   0.000000
     13          3.822052        4.701115   0.000000   0.000000
     14          7.907758        8.361422   0.000000   0.000000
     15         11.507736       11.762930   0.000000   0.000000
     16         19.957606       19.951304   0.000000   0.000000
 
  0.1875000E+00  0.6250000E-01  0.0000000E+00  0.3906250E-02
      1         -1.373594       -1.058330   1.000000   1.000000
      2         -1.062287       -0.450656   1.000000   1.000000
      3          0.405241        1.881423   1.000000   1.000000
      4          0.436786        1.961946   1.000000   1.000000
      5          0.438826        2.049847   1.000000   1.000000
      6          0.450544        2.287781   1.000000   1.000000
      7          0.714112        2.592107   1.000000   1.000000
      8          1.293492        3.148256   1.000000   0.621384
      9          1.528541        3.385002   1.000000   0.000000
     10          1.535490        3.397656   1.000000   0.000000
     11          1.558222        3.712363   1.000000   0.000000
     12          1.671524        3.721907   1.000000   0.000000
     13          4.739063        5.400409   0.000000   0.000000
     14          8.940465        9.444156   0.000000   0.000000
     15         12.039837       12.234183   0.000000   0.000000
     16         19.350135       19.716391   0.000000   0.000000
 
  0.2500000E+00  0.6250000E-01  0.0000000E+00  0.3906250E-02
      1         -0.859440       -0.223254   1.000000   1.000000
      2         -0.724761        0.230532   1.000000   1.000000
      3          0.184173        1.754812   1.000000   1.000000
      4          0.402757        1.944656   1.000000   1.000000
      5          0.623134        2.143461   1.000000   1.000000
      6          0.640625        2.241653   1.000000   1.000000
      7          0.773489        2.599387   1.000000   1.000000
      8          1.456954        3.325831   1.000000   0.000001
      9          1.465928        3.626895   1.000000   0.000000
     10          1.563640        3.639182   1.000000   0.000000
     11          1.992931        3.813409   1.000000   0.000000
     12          2.278020        3.861786   1.000000   0.000000
     13          5.839654        6.335893   0.000000   0.000000
     14         10.164121       10.685137   0.000000   0.000000
     15         12.719491       12.852752   0.000000   0.000000
     16         16.488732       16.903542   0.000000   0.000000
 
  0.3125000E+00  0.6250000E-01  0.0000000E+00  0.3906250E-02
      1         -0.785722        0.308345   1.000000   1.000000
      2         -0.740724        0.500623   1.000000   1.000000
      3         -0.008489        1.646699   1.000000   1.000000
      4          0.150206        1.966182   1.000000   1.000000
      5          0.862686        2.411995   1.000000   1.000000
      6          0.967580        2.727720   1.000000   1.000000
      7          1.391043        2.925767   1.000000   1.000000
      8          1.401741        3.532996   1.000000   0.000000
      9          1.559906        3.548145   1.000000   0.000000
     10          1.914000        3.562747   1.000000   0.000000
     11          2.635605        4.276119   1.000000   0.000000
     12          3.251306        4.428798   0.004586   0.000000
     13          7.128740        7.502317   0.000000   0.000000
     14         11.508019       12.020947   0.000000   0.000000
     15         13.077210       13.309193   0.000000   0.000000
     16         13.968726       14.396241   0.000000   0.000000
 
  0.3750000E+00  0.6250000E-01  0.0000000E+00  0.3906250E-02
      1         -0.864087        0.418533   1.000000   1.000000
      2         -0.846295        0.483528   1.000000   1.000000
      3         -0.135791        1.573877   1.000000   1.000000
      4         -0.028574        1.772267   1.000000   1.000000
      5          1.044451        3.091848   1.000000   0.971582
      6          1.164951        3.266486   1.000000   0.001203
      7          1.340608        3.440438   1.000000   0.000000
      8          1.352620        3.487825   1.000000   0.000000
      9          2.135173        3.504199   1.000000   0.000000
     10          2.222124        3.864387   1.000000   0.000000
     11          3.803961        4.826392   0.000000   0.000000
     12          4.564335        5.221101   0.000000   0.000000
     13          8.599584        8.884129   0.000000   0.000000
     14         11.247141       11.834420   0.000000   0.000000
     15         12.183896       12.770987   0.000000   0.000000
     16         12.681168       13.118629   0.000000   0.000000
 
  0.4375000E+00  0.6250000E-01  0.0000000E+00  0.3906250E-02
      1         -0.924374        0.408878   1.000000   1.000000
      2         -0.918449        0.430188   1.000000   1.000000
      3         -0.196455        1.543255   1.000000   1.000000
      4         -0.123306        1.666732   1.000000   1.000000
      5          1.148044        3.274452   1.000000   0.000557
      6          1.245619        3.421027   1.000000   0.000000
      7          1.313373        3.455235   1.000000   0.000000
      8          1.326088        3.472559   1.000000   0.000000
      9          2.370877        4.026572   1.000000   0.000000
     10          2.391107        4.139423   1.000000   0.000000
     11          5.164247        5.605072   0.000000   0.000000
     12          5.692271        6.019501   0.000000   0.000000
     13          9.584039       10.345968   0.000000   0.000000
     14         10.165313       10.392934   0.000000   0.000000
     15         10.461445       11.254535   0.000000   0.000000
     16         12.202842       12.422256   0.000000   0.000000
 
  0.1250000E+00  0.1250000E+00  0.0000000E+00  0.1953125E-02
      1         -1.445779       -1.169045   1.000000   1.000000
      2         -1.100193       -0.542822   1.000000   1.000000
      3          0.353695        1.909628   1.000000   1.000000
      4          0.356694        2.000174   1.000000   1.000000
      5          0.382860        2.004147   1.000000   1.000000
      6          0.490343        2.174021   1.000000   1.000000
      7          0.777864        2.665666   1.000000   1.000000
      8          1.216379        3.121799   1.000000   0.854846
      9          1.521230        3.366637   1.000000   0.000000
     10          1.526488        3.386348   1.000000   0.000000
     11          1.553378        3.702537   1.000000   0.000000
     12          1.693725        3.710061   1.000000   0.000000
     13          4.599139        5.295339   0.000000   0.000000
     14          8.781181        9.282800   0.000000   0.000000
     15         11.956538       12.160752   0.000000   0.000000
     16         20.735240       20.753276   0.000000   0.000000
 
  0.1875000E+00  0.1250000E+00  0.0000000E+00  0.3906250E-02
      1         -0.762566       -0.338797   1.000000   1.000000
      2         -0.557199        0.215916   1.000000   1.000000
      3          0.267238        1.811157   1.000000   1.000000
      4          0.268997        1.819748   1.000000   1.000000
      5          0.274991        1.840829   1.000000   1.000000
      6          0.505156        2.356760   1.000000   1.000000
      7          0.628725        2.460371   1.000000   1.000000
      8          1.361648        3.272323   1.000000   0.000687
      9          1.427256        3.588398   1.000000   0.000000
     10          1.434713        3.599057   1.000000   0.000000
     11          2.038161        3.818379   1.000000   0.000000
     12          2.337637        3.899534   1.000000   0.000000
     13          5.585054        6.126833   0.000000   0.000000
     14          9.887934       10.415351   0.000000   0.000000
     15         12.588372       12.733280   0.000000   0.000000
     16         18.132847       18.503711   0.000000   0.000000
 
  0.2500000E+00  0.1250000E+00  0.0000000E+00  0.3906250E-02
      1         -0.494489        0.419679   1.000000   1.000000
      2         -0.435960        0.738660   1.000000   1.000000
      3          0.090111        1.727093   1.000000   1.000000
      4          0.270952        1.876957   1.000000   1.000000
      5          0.572635        2.026613   1.000000   1.000000
      6          0.592429        2.102347   1.000000   1.000000
      7          0.954842        2.768839   1.000000   1.000000
      8          1.329807        3.420402   1.000000   0.000000
      9          1.339579        3.469399   1.000000   0.000000
     10          1.534641        3.482953   1.000000   0.000000
     11          2.736567        4.358744   1.000000   0.000000
     12          3.269569        4.577692   0.000898   0.000000
     13          6.771369        7.190854   0.000000   0.000000
     14         11.170494       11.703935   0.000000   0.000000
     15         13.297559       13.412633   0.000000   0.000000
     16         15.377678       15.799656   0.000000   0.000000
 
  0.3125000E+00  0.1250000E+00  0.0000000E+00  0.3906250E-02
      1         -0.578800        0.678756   1.000000   1.000000
      2         -0.558563        0.777163   1.000000   1.000000
      3         -0.034080        1.669351   1.000000   1.000000
      4          0.092984        1.912978   1.000000   1.000000
      5          0.931409        2.488464   1.000000   1.000000
      6          0.976260        2.654798   1.000000   1.000000
      7          1.245370        3.050744   1.000000   0.998920
      8          1.256899        3.365649   1.000000   0.000000
      9          1.438075        3.381117   1.000000   0.000000
     10          1.729555        3.538665   1.000000   0.000000
     11          3.788045        5.035975   0.000000   0.000000
     12          4.513751        5.477252   0.000000   0.000000
     13          8.153711        8.479913   0.000000   0.000000
     14         12.515643       13.033227   0.000000   0.000000
     15         12.572449       13.050562   0.000000   0.000000
     16         13.391257       13.815484   0.000000   0.000000
 
  0.3750000E+00  0.1250000E+00  0.0000000E+00  0.3906250E-02
      1         -0.677262        0.662376   1.000000   1.000000
      2         -0.669564        0.694075   1.000000   1.000000
      3         -0.103888        1.643030   1.000000   1.000000
      4         -0.020305        1.790946   1.000000   1.000000
      5          1.110035        3.147732   1.000000   0.627012
      6          1.188012        3.179424   1.000000   0.283511
      7          1.190814        3.280328   1.000000   0.000306
      8          1.200585        3.294778   1.000000   0.000063
      9          1.807110        3.311261   1.000000   0.000008
     10          1.901613        3.598905   1.000000   0.000000
     11          5.169252        5.958212   0.000000   0.000000
     12          5.893104        6.532121   0.000000   0.000000
     13          9.706447        9.966759   0.000000   0.000000
     14         10.484237       11.132033   0.000000   0.000000
     15         11.457393       12.134016   0.000000   0.000000
     16         13.084675       13.406857   0.000000   0.000000
 
  0.4375000E+00  0.1250000E+00  0.0000000E+00  0.1953125E-02
      1         -0.713116        0.642803   1.000000   1.000000
      2         -0.712396        0.653379   1.000000   1.000000
      3         -0.124783        1.639455   1.000000   1.000000
      4         -0.060617        1.745237   1.000000   1.000000
      5          1.167692        3.269579   1.000000   0.000897
      6          1.169934        3.286395   1.000000   0.000160
      7          1.180634        3.295997   1.000000   0.000054
      8          1.252573        3.356061   1.000000   0.000000
      9          1.939635        3.538791   1.000000   0.000000
     10          1.963130        3.548345   1.000000   0.000000
     11          6.208324        6.705789   0.000000   0.000000
     12          6.544361        7.027323   0.000000   0.000000
     13          9.486822       10.259029   0.000000   0.000000
     14         10.274686       11.096997   0.000000   0.000000
     15         10.992889       11.231094   0.000000   0.000000
     16         12.062675       12.267056   0.000000   0.000000
 
  0.1875000E+00  0.1875000E+00  0.0000000E+00  0.1953125E-02
      1         -0.116316        0.505130   1.000000   1.000000
      2         -0.021653        0.961735   1.000000   1.000000
      3          0.080272        1.630379   1.000000   1.000000
      4          0.085298        1.638131   1.000000   1.000000
      5          0.135428        1.764662   1.000000   1.000000
      6          0.326495        2.165169   1.000000   1.000000
      7          0.877654        2.720711   1.000000   1.000000
      8          1.294252        3.397542   1.000000   0.000000
      9          1.304346        3.424467   1.000000   0.000000
     10          1.444244        3.439843   1.000000   0.000000
     11          2.771992        4.391449   1.000000   0.000000
     12          3.292847        4.629214   0.000078   0.000000
     13          6.654182        7.092554   0.000000   0.000000
     14         11.056690       11.598165   0.000000   0.000000
     15         13.310183       13.412387   0.000000   0.000000
     16         17.029384       17.352207   0.000000   0.000000
 
  0.2500000E+00  0.1875000E+00  0.0000000E+00  0.3906250E-02
      1         -0.146585        1.097348   1.000000   1.000000
      2         -0.135266        1.248461   1.000000   1.000000
      3          0.050795        1.750582   1.000000   1.000000
      4          0.193824        1.751296   1.000000   1.000000
      5          0.502959        1.889610   1.000000   1.000000
      6          0.517733        2.029869   1.000000   1.000000
      7          1.119591        2.996241   1.000000   0.999998
      8          1.154720        3.251351   1.000000   0.004569
      9          1.168250        3.271965   1.000000   0.000712
     10          1.511818        3.493615   1.000000   0.000000
     11          3.819515        5.135039   0.000000   0.000000
     12          4.534263        5.609224   0.000000   0.000000
     13          7.935152        8.288823   0.000000   0.000000
     14         12.384763       12.932346   0.000000   0.000000
     15         13.833418       14.042623   0.000000   0.000000
     16         14.574000       14.945476   0.000000   0.000000
 
  0.3125000E+00  0.1875000E+00  0.0000000E+00  0.3906250E-02
      1         -0.293921        1.073559   1.000000   1.000000
      2         -0.287255        1.109630   1.000000   1.000000
      3          0.010400        1.765693   1.000000   1.000000
      4          0.108420        1.945581   1.000000   1.000000
      5          0.910908        2.381076   1.000000   1.000000
      6          0.948158        2.485411   1.000000   1.000000
      7          1.037655        3.104920   1.000000   0.937589
      8          1.053119        3.127575   1.000000   0.814353
      9          1.305935        3.220941   1.000000   0.040342
     10          1.535871        3.529468   1.000000   0.000000
     11          5.186629        6.138145   0.000000   0.000000
     12          6.002199        6.825702   0.000000   0.000000
     13          9.415279        9.704133   0.000000   0.000000
     14         11.872126       12.402562   0.000000   0.000000
     15         12.874830       13.435557   0.000000   0.000000
     16         13.609746       14.121928   0.000000   0.000000
 
  0.3750000E+00  0.1875000E+00  0.0000000E+00  0.3906250E-02
      1         -0.374201        1.007547   1.000000   1.000000
      2         -0.369897        1.017075   1.000000   1.000000
      3          0.000831        1.791829   1.000000   1.000000
      4          0.064710        1.900016   1.000000   1.000000
      5          0.970316        2.796768   1.000000   1.000000
      6          0.985933        2.858374   1.000000   1.000000
      7          1.144147        3.020242   1.000000   0.999958
      8          1.203008        3.041675   1.000000   0.999556
      9          1.413080        3.351882   1.000000   0.000000
     10          1.497062        3.492182   1.000000   0.000000
     11          6.698100        7.342641   0.000000   0.000000
     12          7.334622        7.926668   0.000000   0.000000
     13         10.039986       10.729262   0.000000   0.000000
     14         10.947103       11.276265   0.000000   0.000000
     15         11.023319       11.670941   0.000000   0.000000
     16         13.047735       13.286064   0.000000   0.000000
 
  0.2500000E+00  0.2500000E+00  0.0000000E+00  0.1953125E-02
      1          0.025374        1.492743   1.000000   1.000000
      2          0.034605        1.507978   1.000000   1.000000
      3          0.068294        1.817845   1.000000   1.000000
      4          0.175513        1.826966   1.000000   1.000000
      5          0.588124        1.985257   1.000000   1.000000
      6          0.590933        2.025922   1.000000   1.000000
      7          0.961644        3.009883   1.000000   0.999988
      8          0.981363        3.041327   1.000000   0.999571
      9          1.216350        3.208216   1.000000   0.082751
     10          1.461292        3.523128   1.000000   0.000000
     11          5.193325        6.190984   0.000000   0.000000
     12          6.034093        6.915451   0.000000   0.000000
     13          9.317740        9.617718   0.000000   0.000000
     14         13.483988       13.896573   0.000000   0.000000
     15         13.709001       14.205377   0.000000   0.000000
     16         13.732526       14.279063   0.000000   0.000000
 
  0.3125000E+00  0.2500000E+00  0.0000000E+00  0.3906250E-02
      1          0.021383        1.443487   1.000000   1.000000
      2          0.031752        1.451684   1.000000   1.000000
      3          0.124881        1.935847   1.000000   1.000000
      4          0.197773        2.064548   1.000000   1.000000
      5          0.795954        2.215307   1.000000   1.000000
      6          0.816929        2.291593   1.000000   1.000000