    2    2    1    2
  0.1064014E+02  0.2472000E-09  0.2472000E-09  0.4021144E-09  0.5000000E-15
  1.000000000000000E-004
  CAR 
 Co-hcc                                  
     18    210     16
 
  0.0000000E+00  0.0000000E+00  0.0000000E+00  0.3255208E-03
      1          1.516231        1.504750   1.000000   1.000000
      2          5.316792        6.231657   1.000000   1.000000
      3          7.876891        9.474875   1.000000   1.000000
      4          7.936352        9.532644   1.000000   1.000000
      5          7.936352        9.532645   1.000000   1.000000
      6          8.252104        9.900930   1.000000   1.000000
      7          8.252104        9.900930   1.000000   1.000000
      8          8.633940       10.321986   1.000000   1.000000
      9          8.633940       10.368031   1.000000   0.999998
     10          9.744168       10.368032   1.000000   0.999998
     11          9.744168       11.592476   1.000000   0.000000
     12         10.388988       11.592477   0.999968   0.000000
     13         16.984332       17.984070   0.000000   0.000000
     14         32.761515       32.473782   0.000000   0.000000
     15         35.571170       35.729560   0.000000   0.000000
     16         35.571508       35.808920   0.000000   0.000000
 
  0.6250000E-01  0.1387779E-16  0.0000000E+00  0.1953125E-02
      1          1.656176        1.645165   1.000000   1.000000
      2          5.402675        6.328794   1.000000   1.000000
      3          7.744335        9.311204   1.000000   1.000000
      4          8.002575        9.605191   1.000000   1.000000
      5          8.050108        9.666939   1.000000   1.000000
      6          8.219225        9.858163   1.000000   1.000000
      7          8.310821        9.870911   1.000000   1.000000
      8          8.556616        9.965242   1.000000   1.000000
      9          8.591920       10.319076   1.000000   1.000000
     10          9.137357       10.329056   1.000000   1.000000
     11          9.761958       11.613593   1.000000   0.000000
     12         11.165126       12.165600   0.000000   0.000000
     13         17.007147       17.994073   0.000000   0.000000
     14         31.773987       31.711777   0.000000   0.000000
     15         33.703051       33.816398   0.000000   0.000000
     16         34.039773       34.359582   0.000000   0.000000
 
  0.1250000E+00  0.2775558E-16  0.0000000E+00  0.1953125E-02
      1          2.067767        2.059393   1.000000   1.000000
      2          5.637041        6.598425   1.000000   1.000000
      3          7.548195        9.066865   1.000000   1.000000
      4          8.092110        9.186720   1.000000   1.000000
      5          8.132870        9.700919   1.000000   1.000000
      6          8.195276        9.816991   1.000000   1.000000
      7          8.254813        9.891024   1.000000   1.000000
      8          8.480090       10.152087   1.000000   1.000000
      9          8.481072       10.189386   1.000000   1.000000
     10          8.693767       10.225911   1.000000   1.000000
     11          9.805200       11.664506   1.000000   0.000000
     12         12.312208       13.206570   0.000000   0.000000
     13         17.082855       18.030304   0.000000   0.000000
     14         29.100214       29.323569   0.000000   0.000000
     15         32.149345       32.456287   0.000000   0.000000
     16         32.815663       32.845343   0.000000   0.000000
 
  0.1875000E+00  0.0000000E+00  0.0000000E+00  0.1953125E-02
      1          2.722899        2.724492   1.000000   1.000000
      2          5.936001        6.962538   1.000000   1.000000
      3          7.348550        8.572567   1.000000   1.000000
      4          7.510560        8.794585   1.000000   1.000000
      5          7.978964        9.546184   1.000000   1.000000
      6          8.328288       10.014385   1.000000   1.000000
      7          8.494174       10.073903   1.000000   1.000000
      8          8.496130       10.147447   1.000000   1.000000
      9          8.516901       10.148639   1.000000   1.000000
     10          8.743645       10.441098   1.000000   0.994251
     11          9.855017       11.722530   1.000000   0.000000
     12         13.588921       14.408763   0.000000   0.000000
     13         17.229792       18.108417   0.000000   0.000000
     14         26.183851       26.533524   0.000000   0.000000
     15         30.402209       30.689095   0.000000   0.000000
     16         32.113349       32.210162   0.000000   0.000000
 
  0.2500000E+00  0.5551115E-16  0.0000000E+00  0.1953125E-02
      1          3.560587        3.595027   1.000000   1.000000
      2          6.130495        7.258657   1.000000   1.000000
      3          6.969564        8.067711   1.000000   1.000000
      4          7.249539        8.580898   1.000000   1.000000
      5          7.915427        9.438233   1.000000   1.000000
      6          8.165423        9.827547   1.000000   1.000000
      7          8.361405        9.897028   1.000000   1.000000
      8          8.848245       10.509101   1.000000   0.726994
      9          8.864367       10.560647   1.000000   0.196503
     10          9.066808       10.798065   1.000000   0.000000
     11          9.898456       11.772581   1.000000   0.000000
     12         14.972937       15.722945   0.000000   0.000000
     13         17.456045       18.234022   0.000000   0.000000
     14         23.404853       23.857099   0.000000   0.000000
     15         28.851837       29.109040   0.000000   0.000000
     16         30.797143       30.921194   0.000000   0.000000
 
  0.3125000E+00  0.2775558E-16  0.0000000E+00  0.1953125E-02
      1          4.454584        4.587279   1.000000   1.000000
      2          6.098100        7.309454   1.000000   1.000000
      3          6.545510        7.678994   1.000000   1.000000
      4          7.318123        8.494679   1.000000   1.000000
      5          7.990804        9.488770   1.000000   1.000000
      6          8.015003        9.655637   1.000000   1.000000
      7          8.216423        9.722645   1.000000   1.000000
      8          9.253606       10.994920   1.000000   0.000000
      9          9.350484       11.000863   1.000000   0.000000
     10          9.409879       11.178690   1.000000   0.000000
     11          9.930608       11.809249   1.000000   0.000000
     12         16.448647       17.125275   0.000000   0.000000
     13         17.626363       18.278963   0.000000   0.000000
     14         21.038149       21.598661   0.000000   0.000000
     15         27.545337       27.764234   0.000000   0.000000
     16         28.436963       28.659969   0.000000   0.000000
 
  0.3750000E+00  0.0000000E+00  0.0000000E+00  0.1953125E-02
      1          5.181178        5.551298   1.000000   1.000000
      2          5.954953        7.173676   1.000000   1.000000
      3          6.242981        7.405151   1.000000   1.000000
      4          7.540122        8.501069   1.000000   1.000000
      5          7.894935        9.518816   1.000000   1.000000
      6          8.097343        9.576582   1.000000   1.000000
      7          8.158129        9.665933   1.000000   1.000000
      8          9.593425       11.389839   1.000000   0.000000
      9          9.726574       11.533403   1.000000   0.000000
     10          9.951410       11.641110   1.000000   0.000000
     11         10.074200       11.832749   1.000000   0.000000
     12         16.882695       17.516744   0.000000   0.000000
     13         17.987574       18.581751   0.000000   0.000000
     14         20.042218       20.616474   0.000000   0.000000
     15         26.275405       26.603394   0.000000   0.000000
     16         26.540216       26.717555   0.000000   0.000000
 
  0.4375000E+00  0.2775558E-16  0.0000000E+00  0.1953125E-02
      1          5.568268        6.274726   1.000000   1.000000
      2          5.823218        6.997233   1.000000   1.000000
      3          6.062225        7.243133   1.000000   1.000000
      4          7.817744        8.593222   1.000000   1.000000
      5          7.858233        9.431012   1.000000   1.000000
      6          8.018975        9.479593   1.000000   1.000000
      7          8.290236        9.815451   1.000000   1.000000
      8          9.819551       11.648382   1.000000   0.000000
      9          9.960081       11.800763   1.000000   0.000000
     10          9.962701       11.845406   1.000000   0.000000
     11         11.087759       12.470065   0.000000   0.000000
     12         15.133417       15.930779   0.000000   0.000000
     13         19.487306       19.982121   0.000000   0.000000
     14         20.543060       20.993911   0.000000   0.000000
     15         24.407222       24.849788   0.000000   0.000000
     16         25.605115       26.043757   0.000000   0.000000
 
  0.5000000E+00  0.1110223E-15  0.0000000E+00  0.9765625E-03
      1          5.703576        6.585307   1.000000   1.000000
      2          5.740977        6.868119   1.000000   1.000000
      3          6.002071        7.189491   1.000000   1.000000
      4          7.791153        8.666761   1.000000   1.000000
      5          7.991666        9.400791   1.000000   1.000000
      6          8.014615        9.445652   1.000000   1.000000
      7          8.332315        9.865975   1.000000   1.000000
      8          9.898236       11.737871   1.000000   0.000000
      9          9.966202       11.849308   1.000000   0.000000
     10         10.047212       11.902206   1.000000   0.000000
     11         11.915083       13.121334   0.000000   0.000000
     12         13.980545       14.926885   0.000000   0.000000
     13         20.347518       20.757508   0.000000   0.000000
     14         21.024093       21.394614   0.000000   0.000000
     15         23.425093       23.957874   0.000000   0.000000
     16         24.723257       25.266806   0.000000   0.000000
 
  0.6250000E-01  0.6250000E-01  0.0000000E+00  0.1953125E-02
      1          1.932121        1.922605   1.000000   1.000000
      2          5.563870        6.513022   1.000000   1.000000
      3          7.599821        9.133966   1.000000   1.000000
      4          8.131439        9.371249   1.000000   1.000000
      5          8.157634        9.742752   1.000000   1.000000
      6          8.160325        9.783508   1.000000   1.000000
      7          8.319137        9.787632   1.000000   1.000000
      8          8.435821       10.101408   1.000000   1.000000
      9          8.461439       10.163196   1.000000   1.000000
     10          8.792115       10.324487   1.000000   1.000000
     11          9.788552       11.644811   1.000000   0.000000
     12         11.991267       12.909611   0.000000   0.000000
     13         17.056740       18.017539   0.000000   0.000000
     14         30.272935       30.377936   0.000000   0.000000
     15         31.213002       31.510773   0.000000   0.000000
     16         34.690784       34.769139   0.000000   0.000000
 
  0.1250000E+00  0.6250000E-01  0.0000000E+00  0.3906250E-02
      1          2.466899        2.463108   1.000000   1.000000
      2          5.839789        6.837041   1.000000   1.000000
      3          7.393513        8.788529   1.000000   1.000000
      4          7.747641        8.873350   1.000000   1.000000
      5          8.043296        9.627365   1.000000   1.000000
      6          8.302145        9.967776   1.000000   1.000000
      7          8.329945        9.975883   1.000000   1.000000
      8          8.396554       10.037445   1.000000   1.000000
      9          8.642282       10.240550   1.000000   1.000000
     10          8.679521       10.364894   1.000000   0.999999
     11          9.827294       11.689987   1.000000   0.000000
     12         13.126417       13.973332   0.000000   0.000000
     13         17.171100       18.077863   0.000000   0.000000
     14         27.666801       27.952186   0.000000   0.000000
     15         29.454216       29.745227   0.000000   0.000000
     16         34.149867       34.224080   0.000000   0.000000
 
  0.1875000E+00  0.6250000E-01  0.0000000E+00  0.3906250E-02
      1          3.219078        3.234100   1.000000   1.000000
      2          6.112800        7.190087   1.000000   1.000000
      3          7.189675        8.268246   1.000000   1.000000
      4          7.212265        8.608861   1.000000   1.000000
      5          7.945107        9.486202   1.000000   1.000000
      6          8.139143        9.769708   1.000000   1.000000
      7          8.500733       10.092049   1.000000   1.000000
      8          8.582006       10.246835   1.000000   1.000000
      9          8.745549       10.422469   1.000000   0.998871
     10          9.014993       10.722780   1.000000   0.000000
     11          9.866921       11.735874   1.000000   0.000000
     12         14.421445       15.201955   0.000000   0.000000
     13         17.371528       18.193946   0.000000   0.000000
     14         24.817153       25.212443   0.000000   0.000000
     15         28.091015       28.388593   0.000000   0.000000
     16         32.078207       32.137154   0.000000   0.000000
 
  0.2500000E+00  0.6250000E-01  0.0000000E+00  0.3906250E-02
      1          4.101658        4.174295   1.000000   1.000000
      2          6.197046        7.377530   1.000000   1.000000
      3          6.728721        7.846935   1.000000   1.000000
      4          7.180592        8.447641   1.000000   1.000000
      5          7.946073        9.450699   1.000000   1.000000
      6          7.991600        9.593184   1.000000   1.000000
      7          8.343570        9.909537   1.000000   1.000000
      8          8.926223       10.609128   1.000000   0.013026
      9          9.134483       10.858620   1.000000   0.000000
     10          9.428319       11.147431   1.000000   0.000000
     11          9.899443       11.773199   1.000000   0.000000
     12         15.834464       16.546608   0.000000   0.000000
     13         17.635434       18.343416   0.000000   0.000000
     14         22.184136       22.681980   0.000000   0.000000
     15         26.875362       27.161808   0.000000   0.000000
     16         29.655884       29.819510   0.000000   0.000000
 
  0.3125000E+00  0.6250000E-01  0.0000000E+00  0.3906250E-02
      1          4.939708        5.171075   1.000000   1.000000
      2          6.084658        7.310024   1.000000   1.000000
      3          6.380416        7.532981   1.000000   1.000000
      4          7.320029        8.416716   1.000000   1.000000
      5          7.876678        9.459124   1.000000   1.000000
      6          8.078221        9.578789   1.000000   1.000000
      7          8.189740        9.723567   1.000000   1.000000
      8          9.343408       11.056856   1.000000   0.000000
      9          9.498244       11.270645   1.000000   0.000000
     10          9.922111       11.632778   1.000000   0.000000
     11          9.954498       11.798948   1.000000   0.000000
     12         17.338132       17.975260   0.000000   0.000000
     13         17.554406       18.158624   0.000000   0.000000
     14         20.311065       20.898663   0.000000   0.000000
     15         25.846016       26.107531   0.000000   0.000000
     16         27.400137       27.669731   0.000000   0.000000
 
  0.3750000E+00  0.6250000E-01  0.0000000E+00  0.3906250E-02
      1          5.494120        6.035257   1.000000   1.000000
      2          5.936625        7.140001   1.000000   1.000000
      3          6.148154        7.326046   1.000000   1.000000
      4          7.605147        8.469697   1.000000   1.000000
      5          7.803753        9.381807   1.000000   1.000000
      6          8.063021        9.561931   1.000000   1.000000
      7          8.238691        9.759488   1.000000   1.000000
      8          9.704900       11.491629   1.000000   0.000000
      9          9.787205       11.593212   1.000000   0.000000
     10          9.935609       11.814123   1.000000   0.000000
     11         10.739339       12.245372   0.000000   0.000000
     12         16.144716       16.845130   0.000000   0.000000
     13         18.880782       19.430456   0.000000   0.000000
     14         20.258593       20.768853   0.000000   0.000000
     15         25.044450       25.292018   0.000000   0.000000
     16         25.362344       25.741966   0.000000   0.000000
 
  0.4375000E+00  0.6250000E-01  0.0000000E+00  0.3906250E-02
      1          5.725460        6.565517   1.000000   1.000000
      2          5.831093        6.972648   1.000000   1.000000
      3          6.032337        7.223739   1.000000   1.000000
      4          7.772038        8.572844   1.000000   1.000000
      5          7.868934        9.365053   1.000000   1.000000
      6          7.988620        9.451330   1.000000   1.000000
      7          8.331011        9.866251   1.000000   1.000000
      8          9.882382       11.715603   1.000000   0.000000
      9          9.941708       11.796475   1.000000   0.000000
     10          9.962299       11.820919   1.000000   0.000000
     11         11.794864       13.036936   0.000000   0.000000
     12         14.448126       15.342972   0.000000   0.000000
     13         20.222949       20.667433   0.000000   0.000000
     14         20.968470       21.361964   0.000000   0.000000
     15         23.775095       24.271824   0.000000   0.000000
     16         24.414047       24.736939   0.000000   0.000000
 
  0.1250000E+00  0.1250000E+00  0.0000000E+00  0.1953125E-02
      1          3.102684        3.111735   1.000000   1.000000
      2          6.114752        7.169161   1.000000   1.000000
      3          7.175093        8.355165   1.000000   1.000000
      4          7.289967        8.601004   1.000000   1.000000
      5          7.981318        9.529949   1.000000   1.000000
      6          8.090109        9.722098   1.000000   1.000000
      7          8.451123       10.114415   1.000000   1.000000
      8          8.580680       10.185174   1.000000   1.000000
      9          8.718390       10.386894   1.000000   0.999975
     10          9.014949       10.716815   1.000000   0.000000
     11          9.844414       11.709542   1.000000   0.000000
     12         14.230853       15.024036   0.000000   0.000000
     13         17.347821       18.185333   0.000000   0.000000
     14         26.143679       26.461980   0.000000   0.000000
     15         26.723386       27.094312   0.000000   0.000000
     16         33.093259       33.023715   0.000000   0.000000
 
  0.1875000E+00  0.1250000E+00  0.0000000E+00  0.3906250E-02
      1          3.917109        3.961467   1.000000   1.000000
      2          6.331222        7.465378   1.000000   1.000000
      3          6.864006        7.969016   1.000000   1.000000
      4          6.995290        8.340940   1.000000   1.000000
      5          7.915393        9.467087   1.000000   1.000000
      6          7.954252        9.509635   1.000000   1.000000
      7          8.460951       10.049304   1.000000   1.000000
      8          8.660394       10.343705   1.000000   1.000000
      9          9.105562       10.814828   1.000000   0.000000
     10          9.450155       11.157987   1.000000   0.000000
     11          9.859250       11.726592   1.000000   0.000000
     12         15.521411       16.256189   0.000000   0.000000
     13         17.636408       18.376538   0.000000   0.000000
     14         23.597322       24.021612   0.000000   0.000000
     15         25.296087       25.657314   0.000000   0.000000
     16         30.967313       31.023880   0.000000   0.000000
 
  0.2500000E+00  0.1250000E+00  0.0000000E+00  0.3906250E-02
      1          4.789134        4.930635   1.000000   1.000000
      2          6.309248        7.526111   1.000000   1.000000
      3          6.516248        7.661671   1.000000   1.000000
      4          7.012769        8.226924   1.000000   1.000000
      5          7.789578        9.352632   1.000000   1.000000
      6          8.032582        9.529249   1.000000   1.000000
      7          8.303138        9.863197   1.000000   1.000000
      8          8.958553       10.663785   1.000000   0.000081
      9          9.478717       11.236129   1.000000   0.000000
     10          9.870851       11.670176   1.000000   0.000000
     11          9.990805       11.739821   1.000000   0.000000
     12         16.947269       17.617433   0.000000   0.000000
     13         17.935608       18.558957   0.000000   0.000000
     14         21.190659       21.716410   0.000000   0.000000
     15         24.263257       24.612365   0.000000   0.000000
     16         28.703735       28.896543   0.000000   0.000000
 
  0.3125000E+00  0.1250000E+00  0.0000000E+00  0.3906250E-02
      1          5.494032        5.870522   1.000000   1.000000
      2          6.152994        7.376345   1.000000   1.000000
      3          6.263415        7.442715   1.000000   1.000000
      4          7.214286        8.251977   1.000000   1.000000
      5          7.719939        9.265356   1.000000   1.000000
      6          8.137697        9.663384   1.000000   1.000000
      7          8.190304        9.703539   1.000000   1.000000
      8          9.320066       11.055334   1.000000   0.000000
      9          9.762823       11.562932   1.000000   0.000000
     10          9.878081       11.747883   1.000000   0.000000
     11         10.699166       12.264888   0.000001   0.000000
     12         17.315407       17.922447   0.000000   0.000000
     13         18.467257       19.063464   0.000000   0.000000
     14         20.167192       20.715699   0.000000   0.000000
     15         23.445378       23.773490   0.000000   0.000000
     16         26.565155       26.875772   0.000000   0.000000
 
  0.3750000E+00  0.1250000E+00  0.0000000E+00  0.3906250E-02
      1          5.843855        6.563088   1.000000   1.000000
      2          6.024841        7.205643   1.000000   1.000000
      3          6.111081        7.312933   1.000000   1.000000
      4          7.507351        8.340452   1.000000   1.000000
      5          7.703551        9.252777   1.000000   1.000000
      6          7.999258        9.485899   1.000000   1.000000
      7          8.325271        9.862778   1.000000   1.000000
      8          9.655981       11.437719   1.000000   0.000000
      9          9.881603       11.730917   1.000000   0.000000
     10          9.904324       11.751688   1.000000   0.000000
     11         11.684805       13.004387   0.000000   0.000000
     12         15.539037       16.316707   0.000000   0.000000
     13         19.984149       20.490576   0.000000   0.000000
     14         20.805825       21.248410   0.000000   0.000000
     15         22.853797       23.170147   0.000000   0.000000
     16         24.676971       25.101917   0.000000   0.000000
 
  0.4375000E+00  0.1250000E+00  0.0000000E+00  0.1953125E-02
      1          5.931498        6.841721   1.000000   1.000000
      2          5.975416        7.098244   1.000000   1.000000
      3          6.060205        7.269961   1.000000   1.000000
      4          7.649940        8.405821   1.000000   1.000000
      5          7.710311        9.282666   1.000000   1.000000
      6          7.938424        9.389451   1.000000   1.000000
      7          8.375216        9.921934   1.000000   1.000000
      8          9.836353       11.646837   1.000000   0.000000
      9          9.882538       11.730776   1.000000   0.000000
     10          9.898403       11.752660   1.000000   0.000000
     11         12.536515       13.620989   0.000000   0.000000
     12         14.338360       15.297456   0.000000   0.000000
     13         20.896612       21.322015   0.000000   0.000000
     14         21.423770       21.788411   0.000000   0.000000
     15         22.531195       22.867175   0.000000   0.000000
     16         23.641052       24.155063   0.000000   0.000000
 
  0.1875000E+00  0.1875000E+00  0.0000000E+00  0.1953125E-02
      1          4.738137        4.848560   1.000000   1.000000
      2          6.513722        7.689853   1.000000   1.000000
      3          6.576986        7.718596   1.000000   1.000000
      4          6.776467        8.068299   1.000000   1.000000
      5          7.742836        9.301623   1.000000   1.000000
      6          8.024635        9.521149   1.000000   1.000000
      7          8.351965        9.919488   1.000000   1.000000
      8          8.808135       10.512944   1.000000   0.689718
      9          9.480324       11.233658   1.000000   0.000000
     10          9.844606       11.683398   1.000000   0.000000
     11         10.007509       11.709717   1.000000   0.000000
     12         16.817291       17.500081   0.000000   0.000000
     13         18.040415       18.679536   0.000000   0.000000
     14         22.331541       22.776089   0.000000   0.000000
     15         22.865574       23.293919   0.000000   0.000000
     16         29.861972       29.893518   0.000000   0.000000
 
  0.2500000E+00  0.1875000E+00  0.0000000E+00  0.3906250E-02
      1          5.522122        5.787411   1.000000   1.000000
      2          6.352305        7.533180   1.000000   1.000000
      3          6.445772        7.665696   1.000000   1.000000
      4          6.810981        7.982255   1.000000   1.000000
      5          7.640729        9.169929   1.000000   1.000000
      6          8.167149        9.673123   1.000000   1.000000
      7          8.194462        9.730697   1.000000   1.000000
      8          9.039615       10.767102   1.000000   0.000000
      9          9.768561       11.565528   1.000000   0.000000
     10          9.830538       11.693573   1.000000   0.000000
     11         10.722042       12.299356   0.000000   0.000000
     12         18.260734       18.824038   0.000000   0.000000
     13         18.276088       18.883906   0.000000   0.000000
     14         20.423836       20.951676   0.000000   0.000000
     15         21.874094       22.296887   0.000000   0.000000
     16         27.957943       28.173335   0.000000   0.000000
 
  0.3125000E+00  0.1875000E+00  0.0000000E+00  0.3906250E-02
      1          6.018950        6.590541   1.000000   1.000000
      2          6.200055        7.413838   1.000000   1.000000
      3          6.284851        7.485825   1.000000   1.000000
      4          7.060170        8.057295   1.000000   1.000000
      5          7.611756        9.125791   1.000000   1.000000
      6          8.024703        9.525159   1.000000   1.000000
      7          8.326357        9.860044   1.000000   1.000000
      8          9.334988       11.088427   1.000000   0.000000
      9          9.819761       11.681082   1.000000   0.000000
     10          9.906204       11.729895   1.000000   0.000000
     11         11.674185       13.047483   0.000000   0.000000
     12         16.950499       17.594272   0.000000   0.000000
     13         19.798370       20.351170   0.000000   0.000000
     14         20.227678       20.708214   0.000000   0.000000
     15         21.453828       21.856364   0.000000   0.000000
     16         25.927917       26.275879   0.000000   0.000000
 
  0.3750000E+00  0.1875000E+00  0.0000000E+00  0.3906250E-02
      1          6.123668        7.042092   1.000000   1.000000
      2          6.175432        7.356209   1.000000   1.000000
      3          6.200990        7.359518   1.000000   1.000000
      4          7.301277        8.150315   1.000000   1.000000
      5          7.635644        9.159624   1.000000   1.000000
      6          7.893403        9.355042   1.000000   1.000000
      7          8.424794        9.979938   1.000000   1.000000
      8          9.610961       11.394264   1.000000   0.000000
      9          9.813937       11.674278   1.000000   0.000000
     10          9.885334       11.712922   1.000000   0.000000
     11         12.862828       13.944203   0.000000   0.000000
     12         15.157855       16.009347   0.000000   0.000000
     13         20.420251       20.841174   0.000000   0.000000
     14         21.230042       21.695441   0.000000   0.000000
     15         21.774255       22.146382   0.000000   0.000000
     16         24.243049       24.701284   0.000000   0.000000
 
  0.2500000E+00  0.2500000E+00  0.0000000E+00  0.1953125E-02
      1          6.109176        6.608194   1.000000   1.000000
      2          6.240966        7.460263   1.000000   1.000000
      3          6.610282        7.751484   1.000000   1.000000
      4          6.650612        7.791984   1.000000   1.000000
      5          7.567723        9.068279   1.000000   1.000000
      6          8.037712        9.542181   1.000000   1.000000
      7          8.332066        9.861470   1.000000   1.000000
      8          9.189961       10.939756   1.000000   0.000000
      9          9.793621       11.651435   1.000000   0.000000
     10          9.908784       11.732012   1.000000   0.000000
     11         11.681757       13.071829   0.000000   0.000000
     12         18.239462       18.753427   0.000000   0.000000
     13         19.026093       19.587738   0.000000   0.000000
     14         19.731690       20.301043   0.000000   0.000000
     15         21.160939       21.608748   0.000000   0.000000
     16         27.430308       27.615518   0.000000   0.000000
 
  0.3125000E+00  0.2500000E+00  0.0000000E+00  0.3906250E-02
      1          6.178037        7.184721   1.000000   1.000000
      2          6.351568        7.428252   1.000000   1.000000
      3          6.498015        7.622466   1.000000   1.000000
      4          6.914966        7.876780   1.000000   1.000000
      5          7.572688        9.057769   1.000000   1.000000
      6          7.874087        9.347249   1.000000   1.000000