       N       E                     dE             d eps       ncg     rms          rms(c)
DAV:   1     0.694624820023E+02    0.69462E+02   -0.74619E+03 13776   0.131E+03
DAV:   2    -0.136480063361E+02   -0.83110E+02   -0.76716E+02 13536   0.226E+02
DAV:   3    -0.155792654440E+02   -0.19313E+01   -0.19067E+01 16736   0.474E+01
DAV:   4    -0.156110701399E+02   -0.31805E-01   -0.31800E-01 19072   0.459E+00
DAV:   5    -0.156112932886E+02   -0.22315E-03   -0.22315E-03 16976   0.369E-01    0.165E+01
DAV:   6    -0.144170674148E+02    0.11942E+01   -0.10549E+01 14488   0.672E+01    0.603E+00
DAV:   7    -0.141054680905E+02    0.31160E+00   -0.14013E+00 15528   0.235E+01    0.370E+00
DAV:   8    -0.140818953133E+02    0.23573E-01   -0.18506E-02 19848   0.187E+00    0.163E+00
DAV:   9    -0.140689252374E+02    0.12970E-01   -0.39985E-03 20416   0.111E+00    0.480E-01
DAV:  10    -0.140677612306E+02    0.11640E-02   -0.63007E-04 18240   0.322E-01    0.535E-02
DAV:  11    -0.140677759744E+02   -0.14744E-04   -0.39695E-05 20728   0.103E-01    0.249E-02
DAV:  12    -0.140677736243E+02    0.23501E-05   -0.58623E-06 14288   0.270E-02    0.147E-02
DAV:  13    -0.140677740156E+02   -0.39125E-06   -0.11231E-06  9520   0.144E-02
   1 F= -.14067774E+02 E0= -.14066683E+02  d E =-.218141E-02  mag=     3.1402
