PROCAR lm decomposed
# of k-points:  210         # of bands:   16         # of ions:    2

 k-point     1 :    0.00000000 0.00000000 0.00000000     weight = 0.00032552

band     1 # energy    1.51623115 # occ.  1.00000000
 
ion      s     py     pz     px    dxy    dyz    dz2    dxz  x2-y2    tot
    1  0.371  0.000  0.000  0.000  0.000  0.000  0.000  0.000  0.000  0.371
    2  0.371  0.000  0.000  0.000  0.000  0.000  0.000  0.000  0.000  0.371
tot    0.741  0.000  0.000  0.000  0.000  0.000  0.000  0.000  0.000  0.741
 
band     2 # energy    5.31679201 # occ.  1.00000000
 
ion      s     py     pz     px    dxy    dyz    dz2    dxz  x2-y2    tot
    1  0.084  0.000  0.000  0.000  0.000  0.000  0.367  0.000  0.000  0.451
    2  0.084  0.000  0.000  0.000  0.000  0.000  0.367  0.000  0.000  0.451
tot    0.168  0.000  0.000  0.000  0.000  0.000  0.733  0.000  0.000  0.901
 
band     3 # energy    7.87689124 # occ.  1.00000000
 
ion      s     py     pz     px    dxy    dyz    dz2    dxz  x2-y2    tot
    1  0.000  0.000  0.000  0.000  0.000  0.000  0.487  0.000  0.000  0.487
    2  0.000  0.000  0.000  0.000  0.000  0.000  0.487  0.000  0.000  0.487
tot    0.000  0.000  0.000  0.000  0.000  0.000  0.973  0.000  0.000  0.973
 
band     4 # energy    7.93635159 # occ.  1.00000000
 
ion      s     py     pz     px    dxy    dyz    dz2    dxz  x2-y2    tot
    1  0.000  0.000  0.000  0.001  0.483  0.000  0.000  0.000  0.000  0.484
    2  0.000  0.000  0.000  0.001  0.483  0.000  0.000  0.000  0.000  0.484
tot    0.000  0.000  0.000  0.001  0.966  0.000  0.000  0.000  0.000  0.968
 
band     5 # energy    7.93635185 # occ.  1.00000000
 
ion      s     py     pz     px    dxy    dyz    dz2    dxz  x2-y2    tot
    1  0.000  0.001  0.000  0.000  0.000  0.000  0.000  0.000  0.483  0.484
    2  0.000  0.001  0.000  0.000  0.000  0.000  0.000  0.000  0.483  0.484
tot    0.000  0.001  0.000  0.000  0.000  0.000  0.000  0.000  0.966  0.968
 
band     6 # energy    8.25210401 # occ.  1.00000000
 
ion      s     py     pz     px    dxy    dyz    dz2    dxz  x2-y2    tot
    1  0.000  0.000  0.000  0.001  0.487  0.000  0.000  0.000  0.000  0.488
    2  0.000  0.000  0.000  0.001  0.487  0.000  0.000  0.000  0.000  0.488
tot    0.000  0.000  0.000  0.001  0.975  0.000  0.000  0.000  0.000  0.976
 
band     7 # energy    8.25210424 # occ.  1.00000000
 
ion      s     py     pz     px    dxy    dyz    dz2    dxz  x2-y2    tot
    1  0.000  0.001  0.000  0.000  0.000  0.000  0.000  0.000  0.487  0.488
    2  0.000  0.001  0.000  0.000  0.000  0.000  0.000  0.000  0.487  0.488
tot    0.000  0.001  0.000  0.000  0.000  0.000  0.000  0.000  0.975  0.976
 
band     8 # energy    8.63393975 # occ.  1.00000000
 
ion      s     py     pz     px    dxy    dyz    dz2    dxz  x2-y2    tot
    1  0.000  0.000  0.000  0.000  0.000  0.000  0.000  0.490  0.000  0.490
    2  0.000  0.000  0.000  0.000  0.000  0.000  0.000  0.490  0.000  0.490
tot    0.000  0.000  0.000  0.000  0.000  0.000  0.000  0.980  0.000  0.980
 
band     9 # energy    8.63393980 # occ.  1.00000000
 
ion      s     py     pz     px    dxy    dyz    dz2    dxz  x2-y2    tot
    1  0.000  0.000  0.000  0.000  0.000  0.490  0.000  0.000  0.000  0.490
    2  0.000  0.000  0.000  0.000  0.000  0.490  0.000  0.000  0.000  0.490
tot    0.000  0.000  0.000  0.000  0.000  0.980  0.000  0.000  0.000  0.980
 
band    10 # energy    9.74416753 # occ.  1.00000000
 
ion      s     py     pz     px    dxy    dyz    dz2    dxz  x2-y2    tot
    1  0.000  0.000  0.000  0.000  0.000  0.000  0.000  0.493  0.000  0.493
    2  0.000  0.000  0.000  0.000  0.000  0.000  0.000  0.493  0.000  0.493
tot    0.000  0.000  0.000  0.000  0.000  0.000  0.000  0.985  0.000  0.985
 
band    11 # energy    9.74416763 # occ.  1.00000000
 
ion      s     py     pz     px    dxy    dyz    dz2    dxz  x2-y2    tot
    1  0.000  0.000  0.000  0.000  0.000  0.493  0.000  0.000  0.000  0.493
    2  0.000  0.000  0.000  0.000  0.000  0.493  0.000  0.000  0.000  0.493
tot    0.000  0.000  0.000  0.000  0.000  0.985  0.000  0.000  0.000  0.985
 
band    12 # energy   10.38898826 # occ.  0.99996847
 
ion      s     py     pz     px    dxy    dyz    dz2    dxz  x2-y2    tot
    1  0.000  0.000  0.352  0.000  0.000  0.000  0.000  0.000  0.000  0.352
    2  0.000  0.000  0.352  0.000  0.000  0.000  0.000  0.000  0.000  0.352
tot    0.000  0.000  0.703  0.000  0.000  0.000  0.000  0.000  0.000  0.703
 
band    13 # energy   16.98433240 # occ.  0.00000000
 
ion      s     py     pz     px    dxy    dyz    dz2    dxz  x2-y2    tot
    1  0.227  0.000  0.000  0.000  0.000  0.000  0.232  0.000  0.000  0.459
    2  0.227  0.000  0.000  0.000  0.000  0.000  0.232  0.000  0.000  0.459
tot    0.454  0.000  0.000  0.000  0.000  0.000  0.464  0.000  0.000  0.918
 
band    14 # energy   32.76151541 # occ.  0.00000000
 
ion      s     py     pz     px    dxy    dyz    dz2    dxz  x2-y2    tot
    1  0.007  0.000  0.000  0.000  0.000  0.000  0.032  0.000  0.000  0.038
    2  0.007  0.000  0.000  0.000  0.000  0.000  0.032  0.000  0.000  0.038
tot    0.013  0.000  0.000  0.000  0.000  0.000  0.064  0.000  0.000  0.077
 
band    15 # energy   35.57116965 # occ.  0.00000000
 
ion      s     py     pz     px    dxy    dyz    dz2    dxz  x2-y2    tot
    1  0.000  0.181  0.000  0.087  0.040  0.000  0.000  0.000  0.084  0.392
    2  0.000  0.181  0.000  0.087  0.040  0.000  0.000  0.000  0.084  0.392
tot    0.000  0.361  0.000  0.173  0.081  0.000  0.000  0.000  0.168  0.784
 
band    16 # energy   35.57150815 # occ.  0.00000000
 
ion      s     py     pz     px    dxy    dyz    dz2    dxz  x2-y2    tot
    1  0.000  0.086  0.000  0.181  0.084  0.000  0.000  0.000  0.040  0.392
    2  0.000  0.087  0.000  0.181  0.084  0.000  0.000  0.000  0.040  0.392
tot    0.000  0.173  0.000  0.361  0.168  0.000  0.000  0.000  0.081  0.783
 

 k-point     2 :    0.06250000 0.00000000 0.00000000     weight = 0.00195312

band     1 # energy    1.65617610 # occ.  1.00000000
 
ion      s     py     pz     px    dxy    dyz    dz2    dxz  x2-y2    tot
    1  0.366  0.001  0.000  0.004  0.000  0.000  0.000  0.000  0.000  0.371
    2  0.366  0.001  0.000  0.004  0.000  0.000  0.000  0.000  0.000  0.371
tot    0.731  0.002  0.000  0.007  0.000  0.000  0.000  0.000  0.000  0.741
 
band     2 # energy    5.40267488 # occ.  1.00000000
 
ion      s     py     pz     px    dxy    dyz    dz2    dxz  x2-y2    tot
    1  0.079  0.001  0.000  0.002  0.001  0.000  0.367  0.000  0.000  0.451
    2  0.079  0.001  0.000  0.002  0.001  0.000  0.367  0.000  0.000  0.451
tot    0.159  0.002  0.000  0.005  0.002  0.000  0.735  0.000  0.001  0.902
 
band     3 # energy    7.74433517 # occ.  1.00000000
 
ion      s     py     pz     px    dxy    dyz    dz2    dxz  x2-y2    tot
    1  0.000  0.000  0.000  0.001  0.197  0.000  0.219  0.000  0.066  0.483
    2  0.000  0.000  0.000  0.001  0.197  0.000  0.219  0.000  0.066  0.483
tot    0.000  0.000  0.000  0.001  0.395  0.000  0.438  0.000  0.132  0.966
 
band     4 # energy    8.00257504 # occ.  1.00000000
 
ion      s     py     pz     px    dxy    dyz    dz2    dxz  x2-y2    tot
    1  0.000  0.001  0.000  0.000  0.121  0.000  0.000  0.000  0.362  0.484
    2  0.000  0.001  0.000  0.000  0.121  0.000  0.000  0.000  0.362  0.484
tot    0.000  0.001  0.000  0.000  0.242  0.000  0.000  0.000  0.725  0.968
 
band     5 # energy    8.05010751 # occ.  1.00000000
 
ion      s     py     pz     px    dxy    dyz    dz2    dxz  x2-y2    tot
    1  0.000  0.000  0.000  0.000  0.166  0.000  0.265  0.000  0.055  0.486
    2  0.000  0.000  0.000  0.000  0.166  0.000  0.265  0.000  0.055  0.486
tot    0.000  0.000  0.000  0.000  0.332  0.000  0.529  0.000  0.111  0.972
 
band     6 # energy    8.21922523 # occ.  1.00000000
 
ion      s     py     pz     px    dxy    dyz    dz2    dxz  x2-y2    tot
    1  0.001  0.000  0.000  0.001  0.362  0.000  0.003  0.000  0.121  0.487
    2  0.001  0.000  0.000  0.001  0.362  0.000  0.003  0.000  0.121  0.487
tot    0.001  0.000  0.000  0.001  0.724  0.000  0.007  0.000  0.241  0.975
 
band     7 # energy    8.31082093 # occ.  1.00000000
 
ion      s     py     pz     px    dxy    dyz    dz2    dxz  x2-y2    tot
    1  0.000  0.001  0.000  0.000  0.122  0.000  0.000  0.000  0.365  0.488
    2  0.000  0.001  0.000  0.000  0.122  0.000  0.000  0.000  0.365  0.488
tot    0.000  0.001  0.000  0.000  0.244  0.000  0.000  0.000  0.731  0.976
 
band     8 # energy    8.55661558 # occ.  1.00000000
 
ion      s     py     pz     px    dxy    dyz    dz2    dxz  x2-y2    tot
    1  0.000  0.000  0.004  0.000  0.000  0.121  0.000  0.362  0.000  0.487
    2  0.000  0.000  0.004  0.000  0.000  0.121  0.000  0.362  0.000  0.487
tot    0.000  0.000  0.008  0.000  0.000  0.242  0.000  0.725  0.000  0.974
 
band     9 # energy    8.59192008 # occ.  1.00000000
 
ion      s     py     pz     px    dxy    dyz    dz2    dxz  x2-y2    tot
    1  0.000  0.000  0.000  0.000  0.000  0.367  0.000  0.122  0.000  0.490
    2  0.000  0.000  0.000  0.000  0.000  0.367  0.000  0.122  0.000  0.490
tot    0.000  0.000  0.000  0.000  0.000  0.734  0.000  0.245  0.000  0.979
 
band    10 # energy    9.13735657 # occ.  1.00000000
 
ion      s     py     pz     px    dxy    dyz    dz2    dxz  x2-y2    tot
    1  0.000  0.000  0.099  0.000  0.000  0.087  0.000  0.262  0.000  0.449
    2  0.000  0.000  0.099  0.000  0.000  0.087  0.000  0.262  0.000  0.449
tot    0.000  0.000  0.198  0.000  0.000  0.175  0.000  0.525  0.000  0.897
 
band    11 # energy    9.76195843 # occ.  1.00000000
 
ion      s     py     pz     px    dxy    dyz    dz2    dxz  x2-y2    tot
    1  0.000  0.000  0.000  0.000  0.000  0.370  0.000  0.123  0.000  0.493
    2  0.000  0.000  0.000  0.000  0.000  0.370  0.000  0.123  0.000  0.493
tot    0.000  0.000  0.000  0.000  0.000  0.740  0.000  0.247  0.000  0.986
 
band    12 # energy   11.16512571 # occ.  0.00000000
 
ion      s     py     pz     px    dxy    dyz    dz2    dxz  x2-y2    tot
    1  0.000  0.000  0.247  0.000  0.000  0.038  0.000  0.114  0.000  0.399
    2  0.000  0.000  0.247  0.000  0.000  0.038  0.000  0.114  0.000  0.399
tot    0.000  0.000  0.494  0.000  0.000  0.076  0.000  0.228  0.000  0.798
 
band    13 # energy   17.00714677 # occ.  0.00000000
 
ion      s     py     pz     px    dxy    dyz    dz2    dxz  x2-y2    tot
    1  0.225  0.001  0.000  0.003  0.000  0.000  0.229  0.000  0.000  0.458
    2  0.225  0.001  0.000  0.003  0.000  0.000  0.229  0.000  0.000  0.458
tot    0.450  0.002  0.000  0.006  0.000  0.000  0.458  0.000  0.000  0.916
 
band    14 # energy   31.77398697 # occ.  0.00000000
 
ion      s     py     pz     px    dxy    dyz    dz2    dxz  x2-y2    tot
    1  0.009  0.013  0.000  0.040  0.087  0.000  0.026  0.000  0.029  0.205
    2  0.009  0.013  0.000  0.040  0.087  0.000  0.026  0.000  0.029  0.205
tot    0.018  0.026  0.000  0.079  0.174  0.000  0.052  0.000  0.058  0.409
 
band    15 # energy   33.70305082 # occ.  0.00000000
 
ion      s     py     pz     px    dxy    dyz    dz2    dxz  x2-y2    tot
    1  0.019  0.031  0.000  0.094  0.066  0.000  0.035  0.000  0.022  0.268
    2  0.019  0.031  0.000  0.094  0.066  0.000  0.035  0.000  0.022  0.268
tot    0.038  0.063  0.000  0.188  0.133  0.000  0.070  0.000  0.044  0.536
 
band    16 # energy   34.03977340 # occ.  0.00000000
 
ion      s     py     pz     px    dxy    dyz    dz2    dxz  x2-y2    tot
    1  0.000  0.172  0.000  0.057  0.045  0.000  0.000  0.000  0.134  0.407
    2  0.000  0.172  0.000  0.057  0.045  0.000  0.000  0.000  0.134  0.407
tot    0.000  0.343  0.000  0.114  0.089  0.000  0.000  0.000  0.268  0.815
 

 k-point     3 :    0.12500000 0.00000000 0.00000000     weight = 0.00195312

band     1 # energy    2.06776655 # occ.  1.00000000
 
ion      s     py     pz     px    dxy    dyz    dz2    dxz  x2-y2    tot
    1  0.351  0.005  0.000  0.014  0.001  0.000  0.000  0.000  0.000  0.371
    2  0.351  0.005  0.000  0.014  0.001  0.000  0.000  0.000  0.000  0.371
tot    0.702  0.009  0.000  0.028  0.001  0.000  0.001  0.000  0.000  0.742
 
band     2 # energy    5.63704093 # occ.  1.00000000
 
ion      s     py     pz     px    dxy    dyz    dz2    dxz  x2-y2    tot
    1  0.067  0.003  0.000  0.008  0.007  0.000  0.366  0.000  0.002  0.453
    2  0.067  0.003  0.000  0.008  0.007  0.000  0.366  0.000  0.002  0.453
tot    0.134  0.005  0.000  0.016  0.013  0.000  0.733  0.000  0.004  0.905
 
band     3 # energy    7.54819540 # occ.  1.00000000
 
ion      s     py     pz     px    dxy    dyz    dz2    dxz  x2-y2    tot
    1  0.000  0.001  0.000  0.002  0.249  0.000  0.144  0.000  0.083  0.479
    2  0.000  0.001  0.000  0.002  0.249  0.000  0.144  0.000  0.083  0.479
tot    0.000  0.001  0.000  0.004  0.499  0.000  0.288  0.000  0.166  0.958
 
band     4 # energy    8.09211021 # occ.  1.00000000
 
ion      s     py     pz     px    dxy    dyz    dz2    dxz  x2-y2    tot
    1  0.002  0.000  0.000  0.001  0.297  0.000  0.086  0.000  0.099  0.485
    2  0.002  0.000  0.000  0.001  0.297  0.000  0.086  0.000  0.099  0.485
tot    0.004  0.001  0.000  0.002  0.595  0.000  0.171  0.000  0.198  0.971
 
band     5 # energy    8.13287021 # occ.  1.00000000
 
ion      s     py     pz     px    dxy    dyz    dz2    dxz  x2-y2    tot
    1  0.000  0.000  0.057  0.000  0.000  0.100  0.000  0.301  0.000  0.458
    2  0.000  0.000  0.057  0.000  0.000  0.100  0.000  0.301  0.000  0.458
tot    0.000  0.000  0.114  0.000  0.000  0.201  0.000  0.602  0.000  0.917
 
band     6 # energy    8.19527613 # occ.  1.00000000
 
ion      s     py     pz     px    dxy    dyz    dz2    dxz  x2-y2    tot
    1  0.000  0.001  0.000  0.000  0.121  0.000  0.000  0.000  0.362  0.484
    2  0.000  0.001  0.000  0.000  0.121  0.000  0.000  0.000  0.362  0.484
tot    0.000  0.002  0.000  0.001  0.241  0.000  0.000  0.000  0.724  0.968
 
band     7 # energy    8.25481348 # occ.  1.00000000
 
ion      s     py     pz     px    dxy    dyz    dz2    dxz  x2-y2    tot
    1  0.001  0.000  0.000  0.001  0.166  0.000  0.263  0.000  0.055  0.487
    2  0.001  0.000  0.000  0.001  0.166  0.000  0.263  0.000  0.055  0.487
tot    0.002  0.000  0.000  0.001  0.333  0.000  0.526  0.000  0.111  0.973
 
band     8 # energy    8.48009005 # occ.  1.00000000
 
ion      s     py     pz     px    dxy    dyz    dz2    dxz  x2-y2    tot
    1  0.000  0.000  0.000  0.000  0.000  0.366  0.000  0.122  0.000  0.488
    2  0.000  0.000  0.000  0.000  0.000  0.366  0.000  0.122  0.000  0.488
tot    0.000  0.000  0.000  0.000  0.000  0.732  0.000  0.244  0.000  0.977
 
band     9 # energy    8.48107181 # occ.  1.00000000
 
ion      s     py     pz     px    dxy    dyz    dz2    dxz  x2-y2    tot
    1  0.000  0.001  0.000  0.000  0.122  0.000  0.000  0.000  0.365  0.488
    2  0.000  0.001  0.000  0.000  0.122  0.000  0.000  0.000  0.365  0.488
tot    0.000  0.002  0.000  0.001  0.243  0.000  0.000  0.000  0.730  0.977
 
band    10 # energy    8.69376655 # occ.  1.00000000
 
ion      s     py     pz     px    dxy    dyz    dz2    dxz  x2-y2    tot
    1  0.000  0.000  0.051  0.000  0.000  0.104  0.000  0.313  0.000  0.468
    2  0.000  0.000  0.051  0.000  0.000  0.104  0.000  0.313  0.000  0.468
tot    0.000  0.000  0.103  0.000  0.000  0.208  0.000  0.625  0.000  0.937
 
band    11 # energy    9.80520006 # occ.  1.00000000
 
ion      s     py     pz     px    dxy    dyz    dz2    dxz  x2-y2    tot
    1  0.000  0.000  0.000  0.000  0.000  0.370  0.000  0.123  0.000  0.494
    2  0.000  0.000  0.000  0.000  0.000  0.370  0.000  0.123  0.000  0.494
tot    0.000  0.000  0.000  0.000  0.000  0.741  0.000  0.247  0.000  0.988
 
band    12 # energy   12.31220822 # occ.  0.00000000
 
ion      s     py     pz     px    dxy    dyz    dz2    dxz  x2-y2    tot
    1  0.000  0.000  0.236  0.000  0.000  0.043  0.000  0.129  0.000  0.408
    2  0.000  0.000  0.236  0.000  0.000  0.043  0.000  0.129  0.000  0.408
tot    0.000  0.000  0.472  0.000  0.000  0.086  0.000  0.259  0.000  0.817
 
band    13 # energy   17.08285542 # occ.  0.00000000
 
ion      s     py     pz     px    dxy    dyz    dz2    dxz  x2-y2    tot
    1  0.218  0.004  0.000  0.013  0.000  0.000  0.218  0.000  0.000  0.454
    2  0.218  0.004  0.000  0.013  0.000  0.000  0.218  0.000  0.000  0.454
tot    0.436  0.009  0.000  0.026  0.001  0.000  0.437  0.000  0.000  0.908
 
band    14 # energy   29.10021390 # occ.  0.00000000
 
ion      s     py     pz     px    dxy    dyz    dz2    dxz  x2-y2    tot
    1  0.026  0.033  0.000  0.098  0.125  0.000  0.024  0.000  0.042  0.346
    2  0.026  0.033  0.000  0.098  0.125  0.000  0.024  0.000  0.042  0.346
tot    0.052  0.065  0.000  0.195  0.250  0.000  0.047  0.000  0.083  0.692
 
band    15 # energy   32.14934484 # occ.  0.00000000
 
ion      s     py     pz     px    dxy    dyz    dz2    dxz  x2-y2    tot
    1  0.000  0.181  0.000  0.060  0.039  0.000  0.000  0.000  0.117  0.397
    2  0.000  0.181  0.000  0.060  0.039  0.000  0.000  0.000  0.117  0.397
tot    0.000  0.362  0.000  0.121  0.078  0.000  0.000  0.000  0.233  0.793
 
band    16 # energy   32.81566338 # occ.  0.00000000
 
ion      s     py     pz     px    dxy    dyz    dz2    dxz  x2-y2    tot
    1  0.024  0.011  0.000  0.032  0.100  0.000  0.046  0.000  0.033  0.247
    2  0.024  0.011  0.000  0.032  0.100  0.000  0.046  0.000  0.033  0.247
tot    0.048  0.022  0.000  0.065  0.201  0.000  0.092  0.000  0.067  0.494
 

 k-point     4 :    0.18750000 0.00000000 0.00000000     weight = 0.00195312

band     1 # energy    2.72289905 # occ.  1.00000000
 
ion      s     py     pz     px    dxy    dyz    dz2    dxz  x2-y2    tot
    1  0.327  0.010  0.000  0.030  0.004  0.000  0.002  0.000  0.001  0.373
    2  0.327  0.010  0.000  0.030  0.004  0.000  0.002  0.000  0.001  0.373
tot    0.653  0.020  0.000  0.059  0.007  0.000  0.003  0.000  0.002  0.745
 
band     2 # energy    5.93600149 # occ.  1.00000000
 
ion      s     py     pz     px    dxy    dyz    dz2    dxz  x2-y2    tot
    1  0.047  0.005  0.000  0.014  0.031  0.000  0.348  0.000  0.010  0.456
    2  0.047  0.005  0.000  0.014  0.031  0.000  0.348  0.000  0.010  0.456
tot    0.095  0.009  0.000  0.028  0.063  0.000  0.696  0.000  0.021  0.912
 
band     3 # energy    7.34855027 # occ.  1.00000000
 
ion      s     py     pz     px    dxy    dyz    dz2    dxz  x2-y2    tot
    1  0.000  0.002  0.000  0.007  0.260  0.000  0.117  0.000  0.087  0.473
    2  0.000  0.002  0.000  0.007  0.260  0.000  0.117  0.000  0.087  0.473
tot    0.001  0.005  0.000  0.014  0.520  0.000  0.234  0.000  0.173  0.947
 
band     4 # energy    7.51055953 # occ.  1.00000000
 
ion      s     py     pz     px    dxy    dyz    dz2    dxz  x2-y2    tot
    1  0.000  0.000  0.066  0.000  0.000  0.095  0.000  0.286  0.000  0.448
    2  0.000  0.000  0.066  0.000  0.000  0.095  0.000  0.286  0.000  0.448
tot    0.000  0.000  0.132  0.000  0.000  0.191  0.000  0.573  0.000  0.896
 
band     5 # energy    7.97896358 # occ.  1.00000000
 
ion      s     py     pz     px    dxy    dyz    dz2    dxz  x2-y2    tot
    1  0.006  0.001  0.000  0.002  0.304  0.000  0.069  0.000  0.101  0.482
    2  0.006  0.001  0.000  0.002  0.304  0.000  0.069  0.000  0.101  0.482
tot    0.011  0.001  0.000  0.004  0.608  0.000  0.138  0.000  0.203  0.965
 
band     6 # energy    8.32828800 # occ.  1.00000000
 
ion      s     py     pz     px    dxy    dyz    dz2    dxz  x2-y2    tot
    1  0.000  0.000  0.000  0.000  0.000  0.365  0.000  0.122  0.000  0.487
    2  0.000  0.000  0.000  0.000  0.000  0.365  0.000  0.122  0.000  0.487
tot    0.000  0.000  0.000  0.000  0.000  0.730  0.000  0.243  0.000  0.973
 
band     7 # energy    8.49417428 # occ.  1.00000000
 
ion      s     py     pz     px    dxy    dyz    dz2    dxz  x2-y2    tot
    1  0.000  0.002  0.000  0.001  0.121  0.000  0.000  0.000  0.362  0.485
    2  0.000  0.002  0.000  0.001  0.121  0.000  0.000  0.000  0.362  0.485
tot    0.000  0.003  0.000  0.001  0.241  0.000  0.000  0.000  0.724  0.970
 
band     8 # energy    8.49612970 # occ.  1.00000000
 
ion      s     py     pz     px    dxy    dyz    dz2    dxz  x2-y2    tot
    1  0.002  0.001  0.000  0.002  0.113  0.000  0.331  0.000  0.038  0.487
    2  0.002  0.001  0.000  0.002  0.113  0.000  0.331  0.000  0.038  0.487
tot    0.005  0.001  0.000  0.004  0.226  0.000  0.663  0.000  0.075  0.973
 
band     9 # energy    8.51690142 # occ.  1.00000000
 
ion      s     py     pz     px    dxy    dyz    dz2    dxz  x2-y2    tot
    1  0.000  0.000  0.031  0.000  0.000  0.111  0.000  0.334  0.000  0.476
    2  0.000  0.000  0.031  0.000  0.000  0.111  0.000  0.334  0.000  0.476
tot    0.000  0.000  0.062  0.000  0.000  0.223  0.000  0.668  0.000  0.952
 
band    10 # energy    8.74364475 # occ.  1.00000000
 
ion      s     py     pz     px    dxy    dyz    dz2    dxz  x2-y2    tot
    1  0.000  0.002  0.000  0.001  0.122  0.000  0.000  0.000  0.365  0.489
    2  0.000  0.002  0.000  0.001  0.122  0.000  0.000  0.000  0.365  0.489
tot    0.000  0.003  0.000  0.001  0.243  0.000  0.000  0.000  0.730  0.978
 
band    11 # energy    9.85501692 # occ.  1.00000000
 
ion      s     py     pz     px    dxy    dyz    dz2    dxz  x2-y2    tot
    1  0.000  0.000  0.000  0.000  0.000  0.371  0.000  0.124  0.000  0.495
    2  0.000  0.000  0.000  0.000  0.000  0.371  0.000  0.124  0.000  0.495
tot    0.000  0.000  0.000  0.000  0.000  0.742  0.000  0.247  0.000  0.990
 
band    12 # energy   13.58892122 # occ.  0.00000000
 
ion      s     py     pz     px    dxy    dyz    dz2    dxz  x2-y2    tot
    1  0.000  0.000  0.238  0.000  0.000  0.043  0.000  0.130  0.000  0.411
    2  0.000  0.000  0.238  0.000  0.000  0.043  0.000  0.130  0.000  0.411
tot    0.000  0.000  0.477  0.000  0.000  0.087  0.000  0.260  0.000  0.823
 
band    13 # energy   17.22979241 # occ.  0.00000000
 
ion      s     py     pz     px    dxy    dyz    dz2    dxz  x2-y2    tot
    1  0.203  0.011  0.000  0.032  0.001  0.000  0.201  0.000  0.000  0.447
    2  0.203  0.011  0.000  0.032  0.001  0.000  0.201  0.000  0.000  0.447
tot    0.406  0.021  0.000  0.063  0.001  0.000  0.402  0.000  0.000  0.894
 
band    14 # energy   26.18385110 # occ.  0.00000000
 
ion      s     py     pz     px    dxy    dyz    dz2    dxz  x2-y2    tot
    1  0.052  0.037  0.000  0.112  0.119  0.000  0.023  0.000  0.040  0.383
    2  0.052  0.037  0.000  0.112  0.119  0.000  0.023  0.000  0.040  0.383
tot    0.104  0.075  0.000  0.224  0.238  0.000  0.045  0.000  0.079  0.766
 
band    15 # energy   30.40220856 # occ.  0.00000000
 
ion      s     py     pz     px    dxy    dyz    dz2    dxz  x2-y2    tot
    1  0.000  0.195  0.000  0.065  0.031  0.000  0.000  0.000  0.092  0.382
    2  0.000  0.195  0.000  0.065  0.031  0.000  0.000  0.000  0.092  0.382
tot    0.000  0.389  0.000  0.130  0.061  0.000  0.000  0.000  0.183  0.764
 
band    16 # energy   32.11334915 # occ.  0.00000000
 
ion      s     py     pz     px    dxy    dyz    dz2    dxz  x2-y2    tot
    1  0.019  0.005  0.000  0.014  0.170  0.000  0.048  0.000  0.057  0.311
    2  0.019  0.005  0.000  0.014  0.170  0.000  0.048  0.000  0.057  0.311
tot    0.037  0.009  0.000  0.027  0.341  0.000  0.095  0.000  0.114  0.623
 

 k-point     5 :    0.25000000 0.00000000 0.00000000     weight = 0.00195312

band     1 # energy    3.56058744 # occ.  1.00000000
 
ion      s     py     pz     px    dxy    dyz    dz2    dxz  x2-y2    tot
    1  0.290  0.016  0.000  0.047  0.015  0.000  0.005  0.000  0.005  0.377
    2  0.290  0.016  0.000  0.047  0.015  0.000  0.005  0.000  0.005  0.377
tot    0.580  0.031  0.000  0.093  0.029  0.000  0.010  0.000  0.010  0.753
 
band     2 # energy    6.13049477 # occ.  1.00000000
 
ion      s     py     pz     px    dxy    dyz    dz2    dxz  x2-y2    tot
    1  0.027  0.004  0.000  0.012  0.106  0.000  0.277  0.000  0.035  0.461
    2  0.027  0.004  0.000  0.012  0.106  0.000  0.277  0.000  0.035  0.461
tot    0.054  0.008  0.000  0.024  0.213  0.000  0.553  0.000  0.071  0.923
 
band     3 # energy    6.96956393 # occ.  1.00000000
 
ion      s     py     pz     px    dxy    dyz    dz2    dxz  x2-y2    tot
    1  0.000  0.000  0.055  0.000  0.000  0.098  0.000  0.294  0.000  0.447
    2  0.000  0.000  0.055  0.000  0.000  0.098  0.000  0.294  0.000  0.447
tot    0.000  0.000  0.109  0.000  0.000  0.196  0.000  0.588  0.000  0.894
 
band     4 # energy    7.24953907 # occ.  1.00000000
 
ion      s     py     pz     px    dxy    dyz    dz2    dxz  x2-y2    tot
    1  0.001  0.007  0.000  0.021  0.228  0.000  0.131  0.000  0.076  0.465
    2  0.001  0.007  0.000  0.021  0.228  0.000  0.131  0.000  0.076  0.465
tot    0.002  0.014  0.000  0.042  0.457  0.000  0.262  0.000  0.152  0.930
 
band     5 # energy    7.91542725 # occ.  1.00000000
 
ion      s     py     pz     px    dxy    dyz    dz2    dxz  x2-y2    tot
    1  0.010  0.001  0.000  0.004  0.249  0.000  0.132  0.000  0.083  0.480
    2  0.010  0.001  0.000  0.004  0.249  0.000  0.132  0.000  0.083  0.480
tot    0.021  0.003  0.000  0.008  0.498  0.000  0.264  0.000  0.166  0.960
 
band     6 # energy    8.16542273 # occ.  1.00000000
 
ion      s     py     pz     px    dxy    dyz    dz2    dxz  x2-y2    tot
    1  0.000  0.000  0.000  0.000  0.000  0.364  0.000  0.121  0.000  0.485
    2  0.000  0.000  0.000  0.000  0.000  0.364  0.000  0.121  0.000  0.485
tot    0.000  0.000  0.000  0.000  0.000  0.728  0.000  0.243  0.000  0.971
 
band     7 # energy    8.36140548 # occ.  1.00000000
 
ion      s     py     pz     px    dxy    dyz    dz2    dxz  x2-y2    tot
    1  0.000  0.000  0.028  0.000  0.000  0.112  0.000  0.337  0.000  0.477
    2  0.000  0.000  0.028  0.000  0.000  0.112  0.000  0.337  0.000  0.477
tot    0.000  0.000  0.055  0.000  0.000  0.224  0.000  0.673  0.000  0.953
 
band     8 # energy    8.84824469 # occ.  1.00000000
 
ion      s     py     pz     px    dxy    dyz    dz2    dxz  x2-y2    tot
    1  0.006  0.002  0.000  0.006  0.104  0.000  0.334  0.000  0.035  0.486
    2  0.006  0.002  0.000  0.006  0.104  0.000  0.334  0.000  0.035  0.486
tot    0.012  0.004  0.000  0.011  0.208  0.000  0.668  0.000  0.069  0.972
 
band     9 # energy    8.86436659 # occ.  1.00000000
 
ion      s     py     pz     px    dxy    dyz    dz2    dxz  x2-y2    tot
    1  0.000  0.002  0.000  0.001  0.121  0.000  0.000  0.000  0.363  0.486
    2  0.000  0.002  0.000  0.001  0.121  0.000  0.000  0.000  0.363  0.486
tot    0.000  0.004  0.000  0.001  0.242  0.000  0.000  0.000  0.726  0.973
 
band    10 # energy    9.06680827 # occ.  1.00000000
 
ion      s     py     pz     px    dxy    dyz    dz2    dxz  x2-y2    tot
    1  0.000  0.002  0.000  0.001  0.122  0.000  0.000  0.000  0.365  0.490
    2  0.000  0.002  0.000  0.001  0.122  0.000  0.000  0.000  0.365  0.490
tot    0.000  0.005  0.000  0.002  0.244  0.000  0.000  0.000  0.731  0.980
 
band    11 # energy    9.89845601 # occ.  1.00000000
 
ion      s     py     pz     px    dxy    dyz    dz2    dxz  x2-y2    tot
    1  0.000  0.000  0.000  0.000  0.000  0.372  0.000  0.124  0.000  0.496
    2  0.000  0.000  0.000  0.000  0.000  0.372  0.000  0.124  0.000  0.496
tot    0.000  0.000  0.000  0.000  0.000  0.743  0.000  0.248  0.000  0.991
 
band    12 # energy   14.97293722 # occ.  0.00000000
 
ion      s     py     pz     px    dxy    dyz    dz2    dxz  x2-y2    tot
    1  0.000  0.000  0.242  0.000  0.000  0.043  0.000  0.128  0.000  0.413
    2  0.000  0.000  0.242  0.000  0.000  0.043  0.000  0.128  0.000  0.413
tot    0.000  0.000  0.484  0.000  0.000  0.085  0.000  0.256  0.000  0.826
 
band    13 # energy   17.45604452 # occ.  0.00000000
 
ion      s     py     pz     px    dxy    dyz    dz2    dxz  x2-y2    tot
    1  0.170  0.022  0.000  0.066  0.000  0.000  0.179  0.000  0.000  0.438
    2  0.170  0.022  0.000  0.066  0.000  0.000  0.179  0.000  0.000  0.438
tot    0.340  0.044  0.000  0.132  0.001  0.000  0.358  0.000  0.000  0.875
 
band    14 # energy   23.40485288 # occ.  0.00000000
 
ion      s     py     pz     px    dxy    dyz    dz2    dxz  x2-y2    tot
    1  0.095  0.034  0.000  0.103  0.111  0.000  0.019  0.000  0.037  0.399
    2  0.095  0.034  0.000  0.103  0.111  0.000  0.019  0.000  0.037  0.399
tot    0.189  0.069  0.000  0.207  0.221  0.000  0.037  0.000  0.074  0.797
 
band    15 # energy   28.85183681 # occ.  0.00000000
 
ion      s     py     pz     px    dxy    dyz    dz2    dxz  x2-y2    tot
    1  0.000  0.209  0.000  0.070  0.022  0.000  0.000  0.000  0.066  0.366
    2  0.000  0.209  0.000  0.070  0.022  0.000  0.000  0.000  0.066  0.366
tot    0.000  0.417  0.000  0.139  0.044  0.000  0.000  0.000  0.131  0.731
 
band    16 # energy   30.79714320 # occ.  0.00000000
 
ion      s     py     pz     px    dxy    dyz    dz2    dxz  x2-y2    tot
    1  0.000  0.000  0.072  0.000  0.000  0.060  0.000  0.181  0.000  0.313
    2  0.000  0.000  0.072  0.000  0.000  0.060  0.000  0.181  0.000  0.313
tot    0.000  0.000  0.144  0.000  0.000  0.121  0.000  0.362  0.000  0.627
 

 k-point     6 :    0.31250000 0.00000000 0.00000000     weight = 0.00195312

band     1 # energy    4.45458434 # occ.  1.00000000
 
ion      s     py     pz     px    dxy    dyz    dz2    dxz  x2-y2    tot
    1  0.235  0.019  0.000  0.056  0.048  0.000  0.013  0.000  0.016  0.388
    2  0.235  0.019  0.000  0.056  0.048  0.000  0.013  0.000  0.016  0.388
tot    0.471  0.037  0.000  0.112  0.097  0.000  0.026  0.000  0.032  0.775
 
band     2 # energy    6.09810043 # occ.  1.00000000
 
ion      s     py     pz     px    dxy    dyz    dz2    dxz  x2-y2    tot
    1  0.016  0.002  0.000  0.005  0.194  0.000  0.183  0.000  0.065  0.464
    2  0.016  0.002  0.000  0.005  0.194  0.000  0.183  0.000  0.065  0.464
tot    0.032  0.003  0.000  0.009  0.389  0.000  0.366  0.000  0.130  0.929