   1   1   0   0
  0.1529075E+02  0.2786001E-09  0.2786001E-09  0.2786001E-09  0.5000000E-15
  1.000000000000000E-004
  CAR 
 Pt-fcc                                  
     68.28380741    -46.33727095  301     11.79532362      1.00000000
    -46.337  0.0000E+00  0.0000E+00
    -45.955  0.0000E+00  0.0000E+00
    -45.573  0.0000E+00  0.0000E+00
    -45.191  0.0000E+00  0.0000E+00
    -44.809  0.0000E+00  0.0000E+00
    -44.427  0.0000E+00  0.0000E+00
    -44.045  0.0000E+00  0.0000E+00
    -43.663  0.0000E+00  0.0000E+00
    -43.281  0.0000E+00  0.0000E+00
    -42.899  0.0000E+00  0.0000E+00
    -42.517  0.0000E+00  0.0000E+00
    -42.134  0.0000E+00  0.0000E+00
    -41.752  0.0000E+00  0.0000E+00
    -41.370  0.4530E-12  0.1731E-12
    -40.988  0.4056E+01  0.1550E+01
    -40.606  0.1146E+02  0.6000E+01
    -40.224  0.0000E+00  0.6000E+01
    -39.842  0.0000E+00  0.6000E+01
    -39.460  0.0000E+00  0.6000E+01
    -39.078  0.0000E+00  0.6000E+01
    -38.696  0.0000E+00  0.6000E+01
    -38.314  0.0000E+00  0.6000E+01
    -37.932  0.0000E+00  0.6000E+01
    -37.550  0.0000E+00  0.6000E+01
    -37.168  0.0000E+00  0.6000E+01
    -36.786  0.0000E+00  0.6000E+01
    -36.403  0.0000E+00  0.6000E+01
    -36.021  0.0000E+00  0.6000E+01
    -35.639  0.0000E+00  0.6000E+01
    -35.257  0.0000E+00  0.6000E+01
    -34.875  0.0000E+00  0.6000E+01
    -34.493  0.0000E+00  0.6000E+01
    -34.111  0.0000E+00  0.6000E+01
    -33.729  0.0000E+00  0.6000E+01
    -33.347  0.0000E+00  0.6000E+01
    -32.965  0.0000E+00  0.6000E+01
    -32.583  0.0000E+00  0.6000E+01
    -32.201  0.0000E+00  0.6000E+01
    -31.819  0.0000E+00  0.6000E+01
    -31.437  0.0000E+00  0.6000E+01
    -31.054  0.0000E+00  0.6000E+01
    -30.672  0.0000E+00  0.6000E+01
    -30.290  0.0000E+00  0.6000E+01
    -29.908  0.0000E+00  0.6000E+01
    -29.526  0.0000E+00  0.6000E+01
    -29.144  0.0000E+00  0.6000E+01
    -28.762  0.0000E+00  0.6000E+01
    -28.380  0.0000E+00  0.6000E+01
    -27.998  0.0000E+00  0.6000E+01
    -27.616  0.0000E+00  0.6000E+01
    -27.234  0.0000E+00  0.6000E+01
    -26.852  0.0000E+00  0.6000E+01
    -26.470  0.0000E+00  0.6000E+01
    -26.088  0.0000E+00  0.6000E+01
    -25.705  0.0000E+00  0.6000E+01
    -25.323  0.0000E+00  0.6000E+01
    -24.941  0.0000E+00  0.6000E+01
    -24.559  0.0000E+00  0.6000E+01
    -24.177  0.0000E+00  0.6000E+01
    -23.795  0.0000E+00  0.6000E+01
    -23.413  0.0000E+00  0.6000E+01
    -23.031  0.0000E+00  0.6000E+01
    -22.649  0.0000E+00  0.6000E+01
    -22.267  0.0000E+00  0.6000E+01
    -21.885  0.0000E+00  0.6000E+01
    -21.503  0.0000E+00  0.6000E+01
    -21.121  0.0000E+00  0.6000E+01
    -20.739  0.0000E+00  0.6000E+01
    -20.356  0.0000E+00  0.6000E+01
    -19.974  0.0000E+00  0.6000E+01
    -19.592  0.0000E+00  0.6000E+01
    -19.210  0.0000E+00  0.6000E+01
    -18.828  0.0000E+00  0.6000E+01
    -18.446  0.0000E+00  0.6000E+01
    -18.064  0.0000E+00  0.6000E+01
    -17.682  0.0000E+00  0.6000E+01
    -17.300  0.0000E+00  0.6000E+01
    -16.918  0.0000E+00  0.6000E+01
    -16.536  0.0000E+00  0.6000E+01
    -16.154  0.0000E+00  0.6000E+01
    -15.772  0.0000E+00  0.6000E+01
    -15.390  0.0000E+00  0.6000E+01
    -15.008  0.0000E+00  0.6000E+01
    -14.625  0.0000E+00  0.6000E+01
    -14.243  0.0000E+00  0.6000E+01
    -13.861  0.0000E+00  0.6000E+01
    -13.479  0.0000E+00  0.6000E+01
    -13.097  0.0000E+00  0.6000E+01
    -12.715  0.0000E+00  0.6000E+01
    -12.333  0.0000E+00  0.6000E+01
    -11.951  0.0000E+00  0.6000E+01
    -11.569  0.0000E+00  0.6000E+01
    -11.187  0.0000E+00  0.6000E+01
    -10.805  0.0000E+00  0.6000E+01
    -10.423  0.0000E+00  0.6000E+01
    -10.041  0.0000E+00  0.6000E+01
     -9.659  0.0000E+00  0.6000E+01
     -9.276  0.0000E+00  0.6000E+01
     -8.894  0.0000E+00  0.6000E+01
     -8.512  0.0000E+00  0.6000E+01
     -8.130  0.0000E+00  0.6000E+01
     -7.748  0.0000E+00  0.6000E+01
     -7.366  0.0000E+00  0.6000E+01
     -6.984  0.0000E+00  0.6000E+01
     -6.602  0.0000E+00  0.6000E+01
     -6.220  0.0000E+00  0.6000E+01
     -5.838  0.0000E+00  0.6000E+01
     -5.456  0.0000E+00  0.6000E+01
     -5.074  0.0000E+00  0.6000E+01
     -4.692  0.0000E+00  0.6000E+01
     -4.310  0.0000E+00  0.6000E+01
     -3.927  0.0000E+00  0.6000E+01
     -3.545  0.0000E+00  0.6000E+01
     -3.163  0.0000E+00  0.6000E+01
     -2.781  0.0000E+00  0.6000E+01
     -2.399  0.0000E+00  0.6000E+01
     -2.017  0.0000E+00  0.6000E+01
     -1.635  0.0000E+00  0.6000E+01
     -1.253  0.0000E+00  0.6000E+01
     -0.871  0.0000E+00  0.6000E+01
     -0.489  0.0000E+00  0.6000E+01
     -0.107  0.0000E+00  0.6000E+01
      0.275  0.0000E+00  0.6000E+01
      0.657  0.0000E+00  0.6000E+01
      1.039  0.0000E+00  0.6000E+01
      1.422  0.0000E+00  0.6000E+01
      1.804  0.4618E-07  0.6000E+01
      2.186  0.4847E-01  0.6019E+01
      2.568  0.2100E-03  0.6019E+01
      2.950  0.1452E+00  0.6074E+01
      3.332  0.1258E+00  0.6122E+01
      3.714  0.1498E-01  0.6135E+01
      4.096  0.1789E+00  0.6204E+01
      4.478  0.3616E+00  0.6342E+01
      4.860  0.4012E+00  0.6496E+01
      5.242  0.8133E+00  0.6811E+01
      5.624  0.1039E+01  0.7250E+01
      6.006  0.1502E+01  0.7824E+01
      6.388  0.1271E+01  0.8319E+01
      6.770  0.8796E+00  0.8655E+01
      7.153  0.1278E+01  0.9170E+01
      7.535  0.1661E+01  0.9811E+01
      7.917  0.1069E+01  0.1025E+02
      8.299  0.1880E+01  0.1097E+02
      8.681  0.2422E+01  0.1189E+02
      9.063  0.1293E+01  0.1242E+02
      9.445  0.9293E+00  0.1278E+02
      9.827  0.1343E+01  0.1330E+02
     10.209  0.1593E+01  0.1391E+02
     10.591  0.9821E+00  0.1428E+02
     10.973  0.1616E+01  0.1490E+02
     11.355  0.6714E+00  0.1516E+02
     11.737  0.1934E+01  0.1593E+02
     12.119  0.1315E+01  0.1644E+02
     12.502  0.8474E+00  0.1678E+02
     12.884  0.9938E-11  0.1678E+02
     13.266  0.1454E+00  0.1683E+02
     13.648  0.4450E+00  0.1700E+02
     14.030  0.4123E+00  0.1716E+02
     14.412  0.1453E+00  0.1722E+02
     14.794  0.1347E+00  0.1727E+02
     15.176  0.3015E+00  0.1739E+02
     15.558  0.2908E+00  0.1750E+02
     15.940  0.2404E+00  0.1759E+02
     16.322  0.2902E+00  0.1772E+02
     16.704  0.2908E+00  0.1783E+02
     17.086  0.0000E+00  0.1783E+02
     17.468  0.1228E+00  0.1788E+02
     17.851  0.8660E+00  0.1822E+02
     18.233  0.1420E+00  0.1828E+02
     18.615  0.0000E+00  0.1828E+02
     18.997  0.3201E-02  0.1828E+02
     19.379  0.1063E+01  0.1869E+02
     19.761  0.2908E+00  0.1880E+02
     20.143  0.1917E+00  0.1887E+02
     20.525  0.2447E+00  0.1896E+02
     20.907  0.1452E+00  0.1902E+02
     21.289  0.2910E+00  0.1913E+02
     21.671  0.5351E+00  0.1933E+02
     22.053  0.2908E+00  0.1946E+02
     22.435  0.4836E-06  0.1946E+02
     22.817  0.7163E+00  0.1974E+02
     23.200  0.2632E+00  0.1984E+02
     23.582  0.5477E+00  0.2006E+02
     23.964  0.5816E+00  0.2030E+02
     24.346  0.9440E-01  0.2033E+02
     24.728  0.4886E+00  0.2052E+02
     25.110  0.3379E+00  0.2065E+02
     25.492  0.8592E+00  0.2098E+02
     25.874  0.1702E+00  0.2105E+02
     26.256  0.7053E+00  0.2132E+02
     26.638  0.7723E+00  0.2161E+02
     27.020  0.3957E+00  0.2176E+02
     27.402  0.1398E+01  0.2230E+02
     27.784  0.4567E+00  0.2247E+02
     28.166  0.3141E+00  0.2259E+02
     28.549  0.8794E+00  0.2293E+02
     28.931  0.8664E+00  0.2326E+02
     29.313  0.1474E+00  0.2332E+02
     29.695  0.4324E+00  0.2348E+02
     30.077  0.4789E-01  0.2350E+02
     30.459  0.7364E+00  0.2378E+02
     30.841  0.9614E+00  0.2415E+02
     31.223  0.3191E+00  0.2427E+02
     31.605  0.7616E+00  0.2458E+02
     31.987  0.6602E+00  0.2485E+02
     32.369  0.8543E+00  0.2518E+02
     32.751  0.5747E+00  0.2540E+02
     33.133  0.5706E+00  0.2562E+02
     33.515  0.5995E+00  0.2585E+02
     33.897  0.1415E+00  0.2591E+02
     34.280  0.1881E+00  0.2598E+02
     34.662  0.4192E+00  0.2616E+02
     35.044  0.5512E+00  0.2638E+02
     35.426  0.7754E+00  0.2669E+02
     35.808  0.2900E+00  0.2680E+02
     36.190  0.3875E+00  0.2694E+02
     36.572  0.2557E+00  0.2704E+02
     36.954  0.7478E+00  0.2734E+02
     37.336  0.6713E+00  0.2760E+02
     37.718  0.4332E+00  0.2778E+02
     38.100  0.4856E+00  0.2796E+02
     38.482  0.8307E+00  0.2828E+02
     38.864  0.6887E+00  0.2856E+02
     39.246  0.1152E+01  0.2902E+02
     39.629  0.1463E+01  0.2958E+02
     40.011  0.9202E+00  0.2996E+02
     40.393  0.3642E+00  0.3010E+02
     40.775  0.1088E+01  0.3052E+02
     41.157  0.4837E+00  0.3070E+02
     41.539  0.5835E+00  0.3094E+02
     41.921  0.8092E+00  0.3125E+02
     42.303  0.1217E+01  0.3172E+02
     42.685  0.4980E+00  0.3191E+02
     43.067  0.2839E+00  0.3202E+02
     43.449  0.8458E+00  0.3234E+02
     43.831  0.1502E+01  0.3292E+02
     44.213  0.6156E+00  0.3315E+02
     44.595  0.4669E+00  0.3333E+02
     44.978  0.6324E+00  0.3357E+02
     45.360  0.2908E+00  0.3369E+02
     45.742  0.2908E+00  0.3380E+02
     46.124  0.6388E+00  0.3404E+02
     46.506  0.5316E+00  0.3424E+02
     46.888  0.1004E+01  0.3463E+02
     47.270  0.1456E+01  0.3518E+02
     47.652  0.1196E+01  0.3565E+02
     48.034  0.1052E+01  0.3606E+02
     48.416  0.6673E+00  0.3633E+02
     48.798  0.4733E+00  0.3655E+02
     49.180  0.1070E+01  0.3696E+02
     49.562  0.1574E+01  0.3756E+02
     49.944  0.6264E+00  0.3783E+02
     50.327  0.1105E+01  0.3825E+02
     50.709  0.2915E+00  0.3836E+02
     51.091  0.4363E+00  0.3854E+02
     51.473  0.7233E+00  0.3881E+02
     51.855  0.1289E+01  0.3931E+02
     52.237  0.1034E+00  0.3935E+02
     52.619  0.6227E+01  0.4175E+02
     53.001  0.9755E+00  0.4213E+02
     53.383  0.6956E+00  0.4241E+02
     53.765  0.1083E+01  0.4283E+02
     54.147  0.7486E+00  0.4311E+02
     54.529  0.7626E+00  0.4340E+02
     54.911  0.1043E+01  0.4382E+02
     55.293  0.1012E+01  0.4420E+02
     55.675  0.2497E+00  0.4430E+02
     56.058  0.1107E+01  0.4472E+02
     56.440  0.1628E+00  0.4478E+02
     56.822  0.9551E+00  0.4515E+02
     57.204  0.1399E+01  0.4568E+02
     57.586  0.5307E+00  0.4589E+02
     57.968  0.8270E+00  0.4621E+02
     58.350  0.1192E+01  0.4666E+02
     58.732  0.6221E+00  0.4690E+02
     59.114  0.1036E+01  0.4730E+02
     59.496  0.3768E+00  0.4744E+02
     59.878  0.2322E+00  0.4755E+02
     60.260  0.1561E-02  0.4757E+02
     60.642  0.1923E+00  0.4765E+02
     61.024  0.2913E+00  0.4776E+02
     61.407  0.1382E+00  0.4781E+02
     61.789  0.2007E+00  0.4789E+02
     62.171  0.1453E+00  0.4794E+02
     62.553  0.0000E+00  0.4794E+02
     62.935  0.6184E-05  0.4794E+02
     63.317  0.1454E+00  0.4800E+02
     63.699  0.0000E+00  0.4800E+02
     64.081  0.0000E+00  0.4800E+02
     64.463  0.0000E+00  0.4800E+02
     64.845  0.0000E+00  0.4800E+02
     65.227  0.0000E+00  0.4800E+02
     65.609  0.0000E+00  0.4800E+02
     65.991  0.0000E+00  0.4800E+02
     66.373  0.0000E+00  0.4800E+02
     66.756  0.0000E+00  0.4800E+02
     67.138  0.0000E+00  0.4800E+02
     67.520  0.0000E+00  0.4800E+02
     67.902  0.0000E+00  0.4800E+02
     68.284  0.0000E+00  0.4800E+02
