       N       E                     dE             d eps       ncg     rms          rms(c)
DAV:   1     0.147688929133E+02    0.14769E+02   -0.11685E+04  1560   0.592E+02
DAV:   2    -0.640739632945E+01   -0.21176E+02   -0.20750E+02  1776   0.860E+01
DAV:   3    -0.643922399288E+01   -0.31828E-01   -0.31828E-01  1848   0.361E+00
DAV:   4    -0.643924747930E+01   -0.23486E-04   -0.23485E-04  2136   0.672E-02
DAV:   5    -0.643924747846E+01    0.84083E-09   -0.15334E-09  1848   0.179E-04    0.149E+01
DAV:   6    -0.611352103483E+01    0.32573E+00   -0.12025E+00  1488   0.493E+00    0.483E+00
DAV:   7    -0.609445400244E+01    0.19067E-01   -0.80599E-02  1944   0.108E+00    0.146E+00
DAV:   8    -0.609293852319E+01    0.15155E-02   -0.39255E-03  1488   0.478E-01    0.153E-01
DAV:   9    -0.609287408702E+01    0.64436E-04   -0.45378E-05  1896   0.481E-02    0.152E-02
DAV:  10    -0.609287959795E+01   -0.55109E-05   -0.49232E-06  1848   0.128E-02    0.546E-03
DAV:  11    -0.609287954776E+01    0.50188E-07   -0.42686E-09   768   0.440E-04
   1 F= -.60928795E+01 E0= -.60921020E+01  d E =-.155514E-02
