Pt-fcc                                  
   1.00000000000000     
     0.000000    1.956612    1.956612
     1.956612    0.000000    1.956612
     1.956612    1.956612    0.000000
   Pt
     1
Direct
  0.000000  0.000000  0.000000
 
   40   40   40
 0.13110775501E+03 0.13099896295E+03 0.13036916465E+03 0.12841955724E+03 0.12415494067E+03
 0.11677279119E+03 0.10600988568E+03 0.92321768933E+02 0.76825852292E+02 0.61026121760E+02
 0.46420810518E+02 0.34135165053E+02 0.24700389122E+02 0.18030310841E+02 0.13567260742E+02
 0.10539930096E+02 0.84695073870E+01 0.71233788839E+01 0.63042417036E+01 0.58689195236E+01
 0.57330317073E+01 0.58689195236E+01 0.63042417036E+01 0.71233788839E+01 0.84695073870E+01
 0.10539930096E+02 0.13567260742E+02 0.18030310841E+02 0.24700389122E+02 0.34135165053E+02
 0.46420810518E+02 0.61026121760E+02 0.76825852292E+02 0.92321768933E+02 0.10600988568E+03
 0.11677279119E+03 0.12415494067E+03 0.12841955724E+03 0.13036916465E+03 0.13099896295E+03
 0.13099896295E+03 0.13062773310E+03 0.12932357534E+03 0.12617328080E+03 0.12026454625E+03
 0.11106262588E+03 0.98678646187E+02 0.83929389074E+02 0.68162422864E+02 0.52909468910E+02
 0.39495465587E+02 0.28740096826E+02 0.20839739195E+02 0.15438670524E+02 0.11830289168E+02
 0.93395820915E+01 0.76766879391E+01 0.66267251723E+01 0.60199374121E+01 0.57440374178E+01
 0.57440380176E+01 0.60199389123E+01 0.66267268113E+01 0.76766888567E+01 0.93395817401E+01
 0.11830287604E+02 0.15438668411E+02 0.20839737521E+02 0.28740096402E+02 0.39495466578E+02
 0.52909470538E+02 0.68162423531E+02 0.83929386793E+02 0.98678639340E+02 0.11106261389E+03
 0.12026453001E+03 0.12617326273E+03 0.12932355874E+03 0.13062772142E+03 0.13099895874E+03
 0.13036916465E+03 0.12932357534E+03 0.12678511582E+03 0.12188963115E+03 0.11397290660E+03
 0.10288429885E+03 0.89140017921E+02 0.73854743110E+02 0.58473015008E+02 0.44398783856E+02
 0.32656829922E+02 0.23696998873E+02 0.17385383239E+02 0.13151971099E+02 0.10253603132E+02
 0.82703153557E+01 0.69802335607E+01 0.61943088311E+01 0.57761196666E+01 0.56454766664E+01
 0.57761216753E+01 0.61943118409E+01 0.69802360264E+01 0.82703159294E+01 0.10253601327E+02
 0.13151967588E+02 0.17385379599E+02 0.23696996867E+02 0.32656830580E+02 0.44398786765E+02
 0.58473018091E+02 0.73854743140E+02 0.89140011548E+02 0.10288428394E+03 0.11397288326E+03
 0.12188960216E+03 0.12678508618E+03 0.12932355100E+03 0.13036915092E+03 0.13062772142E+03
 0.12841955724E+03 0.12617328080E+03 0.12188963115E+03 0.11491734563E+03 0.10496253706E+03
 0.92298877856E+02 0.77791145157E+02 0.62717197536E+02 0.48451335540E+02 0.36124562707E+02
 0.26379585259E+02 0.19291015783E+02 0.14450804337E+02 0.11165498387E+02 0.88789398839E+01
 0.73521369124E+01 0.63862264934E+01 0.58265190543E+01 0.55714509364E+01 0.55714522638E+01
 0.58265223795E+01 0.63862301435E+01 0.73521389825E+01 0.88789391448E+01 0.11165494926E+02
 0.14450799606E+02 0.19291012009E+02 0.26379584413E+02 0.36124565432E+02 0.48451340527E+02
 0.62717201643E+02 0.77791144333E+02 0.92298868568E+02 0.10496251777E+03 0.11491731774E+03
 0.12188959901E+03 0.12617325075E+03 0.12841953585E+03 0.12932355100E+03 0.12932355874E+03
 0.12415494067E+03 0.12026454625E+03 0.11397290660E+03 0.10496253706E+03 0.93354622733E+02
 0.79796360581E+02 0.65367488612E+02 0.51334710574E+02 0.38842563799E+02 0.28651062533E+02
 0.21004424199E+02 0.15656740134E+02 0.12020514192E+02 0.94696980730E+01 0.77245733434E+01
 0.65867917244E+01 0.58907934579E+01 0.55188875254E+01 0.54023940763E+01 0.55188900122E+01
 0.58907972134E+01 0.65867948677E+01 0.77245742007E+01 0.94696959910E+01 0.12020509922E+02
 0.15656735594E+02 0.21004421681E+02 0.28651063648E+02 0.38842568588E+02 0.51334717181E+02
 0.65367493706E+02 0.79796360437E+02 0.93354614637E+02 0.10496252045E+03 0.11397288366E+03
 0.12026452150E+03 0.12415491974E+03 0.12617325075E+03 0.12678508618E+03 0.12617326273E+03
 0.11677279119E+03 0.11106262588E+03 0.10288429885E+03 0.92298877856E+02 0.79796360581E+02
 0.66267595994E+02 0.52831011276E+02 0.40573567484E+02 0.30298883703E+02 0.22368348747E+02
 0.16678395043E+02 0.12762204962E+02 0.10005220050E+02 0.80756822363E+01 0.67844206868E+01
 0.59630765328E+01 0.54840282711E+01 0.52645644713E+01 0.52645655623E+01 0.54840310350E+01
 0.59630796573E+01 0.67844226488E+01 0.80756819854E+01 0.10005217538E+02 0.12762201234E+02
 0.16678391896E+02 0.22368347987E+02 0.30298886392E+02 0.40573573361E+02 0.52831018725E+02
 0.66267602493E+02 0.79796363575E+02 0.92298875721E+02 0.10288429153E+03 0.11106261508E+03
 0.11677277988E+03 0.12026452150E+03 0.12188959901E+03 0.12188960216E+03 0.12026453001E+03
 0.10600988568E+03 0.98678646187E+02 0.89140017921E+02 0.77791145157E+02 0.65367488612E+02
 0.52831011276E+02 0.41167595864E+02 0.31164774308E+02 0.23247502976E+02 0.17423009362E+02
 0.13340538348E+02 0.10447798416E+02 0.83817457869E+01 0.69657676251E+01 0.60364856971E+01
 0.54628949510E+01 0.51537643805E+01 0.50564256490E+01 0.51537656818E+01 0.54628970023E+01
 0.60364876169E+01 0.69657685697E+01 0.83817453052E+01 0.10447796676E+02 0.13340536120E+02
 0.17423007795E+02 0.23247503198E+02 0.31164777053E+02 0.41167601190E+02 0.52831018564E+02
 0.65367496754E+02 0.77791152886E+02 0.89140024245E+02 0.98678650610E+02 0.10600988826E+03
 0.11106261508E+03 0.11397288366E+03 0.11491731774E+03 0.11397288326E+03 0.11106261389E+03
 0.92321768933E+02 0.83929389074E+02 0.73854743110E+02 0.62717197536E+02 0.51334710574E+02
 0.40573567484E+02 0.31164774308E+02 0.23551172343E+02 0.17815993074E+02 0.13709851145E+02
 0.10763970091E+02 0.86199471755E+01 0.71171085164E+01 0.61037070320E+01 0.54516201498E+01
 0.50665810954E+01 0.48885031838E+01 0.48885033895E+01 0.50665816683E+01 0.54516209738E+01
 0.61037079069E+01 0.71171092006E+01 0.86199474274E+01 0.10763969777E+02 0.13709850317E+02
 0.17815992079E+02 0.23551171803E+02 0.31164775081E+02 0.40573570453E+02 0.51334716407E+02
 0.62717206476E+02 0.73854754730E+02 0.83929402283E+02 0.92321782115E+02 0.98678650610E+02
 0.10288429153E+03 0.10496252045E+03 0.10496251777E+03 0.10288428394E+03 0.98678639340E+02
 0.76825852292E+02 0.68162422864E+02 0.58473015008E+02 0.48451335540E+02 0.38842563799E+02
 0.30298883703E+02 0.23247502976E+02 0.17815993074E+02 0.13836981225E+02 0.10928732808E+02
 0.87712968494E+01 0.72260117952E+01 0.61577465449E+01 0.54466962550E+01 0.50005874232E+01
 0.47566527665E+01 0.46791798497E+01 0.47566522846E+01 0.50005868003E+01 0.54466959893E+01
 0.61577469951E+01 0.72260129427E+01 0.87712982095E+01 0.10928733611E+02 0.13836980735E+02
 0.17815991043E+02 0.23247499893E+02 0.30298880852E+02 0.38842562969E+02 0.48451338420E+02
 0.58473022635E+02 0.68162435040E+02 0.76825867453E+02 0.83929402283E+02 0.89140024245E+02
 0.92298875721E+02 0.93354614637E+02 0.92298868568E+02 0.89140011548E+02 0.83929386793E+02
 0.61026121760E+02 0.52909468910E+02 0.44398783856E+02 0.36124562707E+02 0.28651062533E+02
 0.22368348747E+02 0.17423009362E+02 0.13709851145E+02 0.10928732808E+02 0.88232143884E+01
 0.72830201502E+01 0.61927716984E+01 0.54451991498E+01 0.49542534795E+01 0.46585487403E+01
 0.45197757191E+01 0.45197750808E+01 0.46585471719E+01 0.49542518197E+01 0.54451983483E+01
 0.61927722923E+01 0.72830219638E+01 0.88232164640E+01 0.10928733785E+02 0.13709849779E+02
 0.17423005167E+02 0.22368342336E+02 0.28651055571E+02 0.36124557513E+02 0.44398782530E+02
 0.52909472651E+02 0.61026130295E+02 0.68162435040E+02 0.73854754730E+02 0.77791152886E+02
 0.79796363575E+02 0.79796360437E+02 0.77791144333E+02 0.73854743140E+02 0.68162423531E+02
 0.46420810518E+02 0.39495465587E+02 0.32656829922E+02 0.26379585259E+02 0.21004424199E+02
 0.16678395043E+02 0.13340538348E+02 0.10763970091E+02 0.87712968494E+01 0.72830201502E+01
 0.62049010157E+01 0.54450098346E+01 0.49267230820E+01 0.45932433384E+01 0.44070204716E+01
 0.43471616886E+01 0.44070188928E+01 0.45932409230E+01 0.49267209767E+01 0.54450090651E+01
 0.62049019684E+01 0.72830223323E+01 0.87712989655E+01 0.10763970521E+02 0.13340535758E+02
 0.16678388956E+02 0.21004415327E+02 0.26379575252E+02 0.32656821020E+02 0.39495459739E+02
 0.46420808768E+02 0.52909472651E+02 0.58473022635E+02 0.62717206476E+02 0.65367496754E+02
 0.66267602493E+02 0.65367493706E+02 0.62717201643E+02 0.58473018091E+02 0.52909470538E+02
 0.34135165053E+02 0.28740096826E+02 0.23696998873E+02 0.19291015783E+02 0.15656740134E+02
 0.12762204962E+02 0.10447798416E+02 0.86199471755E+01 0.72260117952E+01 0.61927716984E+01
 0.54450098346E+01 0.49175859662E+01 0.45605596492E+01 0.43395742744E+01 0.42338763699E+01
 0.42338755358E+01 0.43395721115E+01 0.45605570841E+01 0.49175840784E+01 0.54450094407E+01
 0.61927729230E+01 0.72260139983E+01 0.86199490768E+01 0.10447798546E+02 0.12762202174E+02
 0.15656733967E+02 0.19291006756E+02 0.23696988191E+02 0.28740086105E+02 0.34135155805E+02
 0.39495459739E+02 0.44398782530E+02 0.48451338420E+02 0.51334716407E+02 0.52831018564E+02
 0.52831018725E+02 0.51334717181E+02 0.48451340527E+02 0.44398786765E+02 0.39495466578E+02
 0.24700389122E+02 0.20839739195E+02 0.17385383239E+02 0.14450804337E+02 0.12020514192E+02
 0.10005220050E+02 0.83817457869E+01 0.71171085164E+01 0.61577465449E+01 0.54451991498E+01
 0.49267230820E+01 0.45605596492E+01 0.43171012446E+01 0.41776323826E+01 0.41321721307E+01
 0.41776311754E+01 0.43170992878E+01 0.45605576892E+01 0.49267218913E+01 0.54451992374E+01
 0.61577479603E+01 0.71171107727E+01 0.83817480119E+01 0.10005221140E+02 0.12020513249E+02
 0.14450800715E+02 0.17385376918E+02 0.20839730636E+02 0.24700379154E+02 0.28740086105E+02
 0.32656821020E+02 0.36124557513E+02 0.38842562969E+02 0.40573570453E+02 0.41167601190E+02
 0.40573573361E+02 0.38842568588E+02 0.36124565432E+02 0.32656830580E+02 0.28740096402E+02
 0.18030310841E+02 0.15438670524E+02 0.13151971099E+02 0.11165498387E+02 0.94696980730E+01
 0.80756822363E+01 0.69657676251E+01 0.61037070320E+01 0.54466962550E+01 0.49542534795E+01
 0.45932433384E+01 0.43395742744E+01 0.41776323826E+01 0.40985874206E+01 0.40985871384E+01
 0.41776316149E+01 0.43395732608E+01 0.45932424338E+01 0.49542530996E+01 0.54466967684E+01
 0.61037086762E+01 0.69657703547E+01 0.80756857377E+01 0.94697016401E+01 0.11165501171E+02
 0.13151972157E+02 0.15438669052E+02 0.18030306564E+02 0.20839730636E+02 0.23696988191E+02
 0.26379575252E+02 0.28651055571E+02 0.30298880852E+02 0.31164775081E+02 0.31164777053E+02
 0.30298886392E+02 0.28651063648E+02 0.26379584413E+02 0.23696996867E+02 0.20839737521E+02
 0.13567260742E+02 0.11830289168E+02 0.10253603132E+02 0.88789398839E+01 0.77245733434E+01
 0.67844206868E+01 0.60364856971E+01 0.54516201498E+01 0.50005874232E+01 0.46585487403E+01
 0.44070204716E+01 0.42338763699E+01 0.41321721307E+01 0.40985871384E+01 0.41321723381E+01
 0.42338766487E+01 0.44070206559E+01 0.46585487903E+01 0.50005875529E+01 0.54516208319E+01
 0.60364875560E+01 0.67844242111E+01 0.77245786874E+01 0.88789466117E+01 0.10253610227E+02
 0.11830295348E+02 0.13567264616E+02 0.15438669052E+02 0.17385376918E+02 0.19291006756E+02
 0.21004415327E+02 0.22368342336E+02 0.23247499893E+02 0.23551171803E+02 0.23247503198E+02
 0.22368347987E+02 0.21004421681E+02 0.19291012009E+02 0.17385379599E+02 0.15438668411E+02
 0.10539930096E+02 0.93395820915E+01 0.82703153557E+01 0.73521369124E+01 0.65867917244E+01
 0.59630765328E+01 0.54628949510E+01 0.50665810954E+01 0.47566527665E+01 0.45197757191E+01
 0.43471616886E+01 0.42338755358E+01 0.41776311754E+01 0.41776316149E+01 0.42338766487E+01
 0.43471629750E+01 0.45197766359E+01 0.47566530585E+01 0.50665809988E+01 0.54628952016E+01
 0.59630781646E+01 0.65867956433E+01 0.73521435342E+01 0.82703243418E+01 0.93395922696E+01
 0.10539939849E+02 0.11830295348E+02 0.13151972157E+02 0.14450800715E+02 0.15656733967E+02
 0.16678388956E+02 0.17423005167E+02 0.17815991043E+02 0.17815992079E+02 0.17423007795E+02
 0.16678391896E+02 0.15656735594E+02 0.14450799606E+02 0.13151967588E+02 0.11830287604E+02
 0.84695073870E+01 0.76766879391E+01 0.69802335607E+01 0.63862264934E+01 0.58907934579E+01
 0.54840282711E+01 0.51537643805E+01 0.48885031838E+01 0.46791798497E+01 0.45197750808E+01
 0.44070188928E+01 0.43395721115E+01 0.43170992878E+01 0.43395732608E+01 0.44070206559E+01
 0.45197766359E+01 0.46791804756E+01 0.48885026217E+01 0.51537630513E+01 0.54840271713E+01
 0.58907938933E+01 0.63862295598E+01 0.69802397404E+01 0.76766968932E+01 0.84695179590E+01
 0.93395922696E+01 0.10253610227E+02 0.11165501171E+02 0.12020513249E+02 0.12762202174E+02
 0.13340535758E+02 0.13709849779E+02 0.13836980735E+02 0.13709850317E+02 0.13340536120E+02
 0.12762201234E+02 0.12020509922E+02 0.11165494926E+02 0.10253601327E+02 0.93395817401E+01
 0.71233788839E+01 0.66267251723E+01 0.61943088311E+01 0.58265190543E+01 0.55188875254E+01
 0.52645644713E+01 0.50564256490E+01 0.48885033895E+01 0.47566522846E+01 0.46585471719E+01
 0.45932409230E+01 0.45605570841E+01 0.45605576892E+01 0.45932424338E+01 0.46585487903E+01
 0.47566530585E+01 0.48885026217E+01 0.50564232251E+01 0.52645609942E+01 0.55188841370E+01
 0.58265171096E+01 0.61943094389E+01 0.66267287848E+01 0.71233851948E+01 0.76766968932E+01
 0.82703243418E+01 0.88789466117E+01 0.94697016401E+01 0.10005221140E+02 0.10447798546E+02
 0.10763970521E+02 0.10928733785E+02 0.10928733611E+02 0.10763969777E+02 0.10447796676E+02
 0.10005217538E+02 0.94696959910E+01 0.88789391448E+01 0.82703159294E+01 0.76766888567E+01
 0.63042417036E+01 0.60199374121E+01 0.57761196666E+01 0.55714509364E+01 0.54023940763E+01
 0.52645655623E+01 0.51537656818E+01 0.50665816683E+01 0.50005868003E+01 0.49542518197E+01
 0.49267209767E+01 0.49175840784E+01 0.49267218913E+01 0.49542530996E+01 0.50005875529E+01
 0.50665809988E+01 0.51537630513E+01 0.52645609942E+01 0.54023882365E+01 0.55714449149E+01
 0.57761146829E+01 0.60199344742E+01 0.63042412958E+01 0.66267287848E+01 0.69802397404E+01
 0.73521435342E+01 0.77245786874E+01 0.80756857377E+01 0.83817480119E+01 0.86199490768E+01
 0.87712989655E+01 0.88232164640E+01 0.87712982095E+01 0.86199474274E+01 0.83817453052E+01
 0.80756819854E+01 0.77245742007E+01 0.73521389825E+01 0.69802360264E+01 0.66267268113E+01
 0.58689195236E+01 0.57440374178E+01 0.56454766664E+01 0.55714522638E+01 0.55188900122E+01
 0.54840310350E+01 0.54628970023E+01 0.54516209738E+01 0.54466959893E+01 0.54451983483E+01
 0.54450090651E+01 0.54450094407E+01 0.54451992374E+01 0.54466967684E+01 0.54516208319E+01
 0.54628952016E+01 0.54840271713E+01 0.55188841370E+01 0.55714449149E+01 0.56454687243E+01
 0.57440298588E+01 0.58689132294E+01 0.60199344742E+01 0.61943094389E+01 0.63862295598E+01
 0.65867956433E+01 0.67844242111E+01 0.69657703547E+01 0.71171107727E+01 0.72260139983E+01
 0.72830223323E+01 0.72830219638E+01 0.72260129427E+01 0.71171092006E+01 0.69657685697E+01
 0.67844226488E+01 0.65867948677E+01 0.63862301435E+01 0.61943118409E+01 0.60199389123E+01
 0.57330317073E+01 0.57440380176E+01 0.57761216753E+01 0.58265223795E+01 0.58907972134E+01
 0.59630796573E+01 0.60364876169E+01 0.61037079069E+01 0.61577469951E+01 0.61927722923E+01
 0.62049019684E+01 0.61927729230E+01 0.61577479603E+01 0.61037086762E+01 0.60364875560E+01
 0.59630781646E+01 0.58907938933E+01 0.58265171096E+01 0.57761146829E+01 0.57440298588E+01
 0.57330231412E+01 0.57440298588E+01 0.57761146829E+01 0.58265171096E+01 0.58907938933E+01
 0.59630781646E+01 0.60364875560E+01 0.61037086762E+01 0.61577479603E+01 0.61927729230E+01
 0.62049019684E+01 0.61927722923E+01 0.61577469951E+01 0.61037079069E+01 0.60364876169E+01
 0.59630796573E+01 0.58907972134E+01 0.58265223795E+01 0.57761216753E+01 0.57440380176E+01
 0.58689195236E+01 0.60199389123E+01 0.61943118409E+01 0.63862301435E+01 0.65867948677E+01
 0.67844226488E+01 0.69657685697E+01 0.71171092006E+01 0.72260129427E+01 0.72830219638E+01
 0.72830223323E+01 0.72260139983E+01 0.71171107727E+01 0.69657703547E+01 0.67844242111E+01
 0.65867956433E+01 0.63862295598E+01 0.61943094389E+01 0.60199344742E+01 0.58689132294E+01
 0.57440298588E+01 0.56454687243E+01 0.55714449149E+01 0.55188841370E+01 0.54840271713E+01
 0.54628952016E+01 0.54516208319E+01 0.54466967684E+01 0.54451992374E+01 0.54450094407E+01
 0.54450090651E+01 0.54451983483E+01 0.54466959893E+01 0.54516209738E+01 0.54628970023E+01
 0.54840310350E+01 0.55188900122E+01 0.55714522638E+01 0.56454766664E+01 0.57440374178E+01
 0.63042417036E+01 0.66267268113E+01 0.69802360264E+01 0.73521389825E+01 0.77245742007E+01
 0.80756819854E+01 0.83817453052E+01 0.86199474274E+01 0.87712982095E+01 0.88232164640E+01
 0.87712989655E+01 0.86199490768E+01 0.83817480119E+01 0.80756857377E+01 0.77245786874E+01
 0.73521435342E+01 0.69802397404E+01 0.66267287848E+01 0.63042412958E+01 0.60199344742E+01
 0.57761146829E+01 0.55714449149E+01 0.54023882365E+01 0.52645609942E+01 0.51537630513E+01
 0.50665809988E+01 0.50005875529E+01 0.49542530996E+01 0.49267218913E+01 0.49175840784E+01
 0.49267209767E+01 0.49542518197E+01 0.50005868003E+01 0.50665816683E+01 0.51537656818E+01
 0.52645655623E+01 0.54023940763E+01 0.55714509364E+01 0.57761196666E+01 0.60199374121E+01
 0.71233788839E+01 0.76766888567E+01 0.82703159294E+01 0.88789391448E+01 0.94696959910E+01
 0.10005217538E+02 0.10447796676E+02 0.10763969777E+02 0.10928733611E+02 0.10928733785E+02
 0.10763970521E+02 0.10447798546E+02 0.10005221140E+02 0.94697016401E+01 0.88789466117E+01
 0.82703243418E+01 0.76766968932E+01 0.71233851948E+01 0.66267287848E+01 0.61943094389E+01
 0.58265171096E+01 0.55188841370E+01 0.52645609942E+01 0.50564232251E+01 0.48885026217E+01
 0.47566530585E+01 0.46585487903E+01 0.45932424338E+01 0.45605576892E+01 0.45605570841E+01
 0.45932409230E+01 0.46585471719E+01 0.47566522846E+01 0.48885033895E+01 0.50564256490E+01
 0.52645644713E+01 0.55188875254E+01 0.58265190543E+01 0.61943088311E+01 0.66267251723E+01
 0.84695073870E+01 0.93395817401E+01 0.10253601327E+02 0.11165494926E+02 0.12020509922E+02
 0.12762201234E+02 0.13340536120E+02 0.13709850317E+02 0.13836980735E+02 0.13709849779E+02
 0.13340535758E+02 0.12762202174E+02 0.12020513249E+02 0.11165501171E+02 0.10253610227E+02
 0.93395922696E+01 0.84695179590E+01 0.76766968932E+01 0.69802397404E+01 0.63862295598E+01
 0.58907938933E+01 0.54840271713E+01 0.51537630513E+01 0.48885026217E+01 0.46791804756E+01
 0.45197766359E+01 0.44070206559E+01 0.43395732608E+01 0.43170992878E+01 0.43395721115E+01
 0.44070188928E+01 0.45197750808E+01 0.46791798497E+01 0.48885031838E+01 0.51537643805E+01
 0.54840282711E+01 0.58907934579E+01 0.63862264934E+01 0.69802335607E+01 0.76766879391E+01
 0.10539930096E+02 0.11830287604E+02 0.13151967588E+02 0.14450799606E+02 0.15656735594E+02
 0.16678391896E+02 0.17423007795E+02 0.17815992079E+02 0.17815991043E+02 0.17423005167E+02
 0.16678388956E+02 0.15656733967E+02 0.14450800715E+02 0.13151972157E+02 0.11830295348E+02
 0.10539939849E+02 0.93395922696E+01 0.82703243418E+01 0.73521435342E+01 0.65867956433E+01
 0.59630781646E+01 0.54628952016E+01 0.50665809988E+01 0.47566530585E+01 0.45197766359E+01
 0.43471629750E+01 0.42338766487E+01 0.41776316149E+01 0.41776311754E+01 0.42338755358E+01
 0.43471616886E+01 0.45197757191E+01 0.47566527665E+01 0.50665810954E+01 0.54628949510E+01
 0.59630765328E+01 0.65867917244E+01 0.73521369124E+01 0.82703153557E+01 0.93395820915E+01
 0.13567260742E+02 0.15438668411E+02 0.17385379599E+02 0.19291012009E+02 0.21004421681E+02
 0.22368347987E+02 0.23247503198E+02 0.23551171803E+02 0.23247499893E+02 0.22368342336E+02
 0.21004415327E+02 0.19291006756E+02 0.17385376918E+02 0.15438669052E+02 0.13567264616E+02
 0.11830295348E+02 0.10253610227E+02 0.88789466117E+01 0.77245786874E+01 0.67844242111E+01
 0.60364875560E+01 0.54516208319E+01 0.50005875529E+01 0.46585487903E+01 0.44070206559E+01
 0.42338766487E+01 0.41321723381E+01 0.40985871384E+01 0.41321721307E+01 0.42338763699E+01
 0.44070204716E+01 0.46585487403E+01 0.50005874232E+01 0.54516201498E+01 0.60364856971E+01
 0.67844206868E+01 0.77245733434E+01 0.88789398839E+01 0.10253603132E+02 0.11830289168E+02
 0.18030310841E+02 0.20839737521E+02 0.23696996867E+02 0.26379584413E+02 0.28651063648E+02
 0.30298886392E+02 0.31164777053E+02 0.31164775081E+02 0.30298880852E+02 0.28651055571E+02
 0.26379575252E+02 0.23696988191E+02 0.20839730636E+02 0.18030306564E+02 0.15438669052E+02
 0.13151972157E+02 0.11165501171E+02 0.94697016401E+01 0.80756857377E+01 0.69657703547E+01
 0.61037086762E+01 0.54466967684E+01 0.49542530996E+01 0.45932424338E+01 0.43395732608E+01
 0.41776316149E+01 0.40985871384E+01 0.40985874206E+01 0.41776323826E+01 0.43395742744E+01
 0.45932433384E+01 0.49542534795E+01 0.54466962550E+01 0.61037070320E+01 0.69657676251E+01
 0.80756822363E+01 0.94696980730E+01 0.11165498387E+02 0.13151971099E+02 0.15438670524E+02
 0.24700389122E+02 0.28740096402E+02 0.32656830580E+02 0.36124565432E+02 0.38842568588E+02
 0.40573573361E+02 0.41167601190E+02 0.40573570453E+02 0.38842562969E+02 0.36124557513E+02
 0.32656821020E+02 0.28740086105E+02 0.24700379154E+02 0.20839730636E+02 0.17385376918E+02
 0.14450800715E+02 0.12020513249E+02 0.10005221140E+02 0.83817480119E+01 0.71171107727E+01
 0.61577479603E+01 0.54451992374E+01 0.49267218913E+01 0.45605576892E+01 0.43170992878E+01
 0.41776311754E+01 0.41321721307E+01 0.41776323826E+01 0.43171012446E+01 0.45605596492E+01
 0.49267230820E+01 0.54451991498E+01 0.61577465449E+01 0.71171085164E+01 0.83817457869E+01
 0.10005220050E+02 0.12020514192E+02 0.14450804337E+02 0.17385383239E+02 0.20839739195E+02
 0.34135165053E+02 0.39495466578E+02 0.44398786765E+02 0.48451340527E+02 0.51334717181E+02
 0.52831018725E+02 0.52831018564E+02 0.51334716407E+02 0.48451338420E+02 0.44398782530E+02
 0.39495459739E+02 0.34135155805E+02 0.28740086105E+02 0.23696988191E+02 0.19291006756E+02
 0.15656733967E+02 0.12762202174E+02 0.10447798546E+02 0.86199490768E+01 0.72260139983E+01
 0.61927729230E+01 0.54450094407E+01 0.49175840784E+01 0.45605570841E+01 0.43395721115E+01
 0.42338755358E+01 0.42338763699E+01 0.43395742744E+01 0.45605596492E+01 0.49175859662E+01
 0.54450098346E+01 0.61927716984E+01 0.72260117952E+01 0.86199471755E+01 0.10447798416E+02
 0.12762204962E+02 0.15656740134E+02 0.19291015783E+02 0.23696998873E+02 0.28740096826E+02
 0.46420810518E+02 0.52909470538E+02 0.58473018091E+02 0.62717201643E+02 0.65367493706E+02
 0.66267602493E+02 0.65367496754E+02 0.62717206476E+02 0.58473022635E+02 0.52909472651E+02
 0.46420808768E+02 0.39495459739E+02 0.32656821020E+02 0.26379575252E+02 0.21004415327E+02
 0.16678388956E+02 0.13340535758E+02 0.10763970521E+02 0.87712989655E+01 0.72830223323E+01
 0.62049019684E+01 0.54450090651E+01 0.49267209767E+01 0.45932409230E+01 0.44070188928E+01
 0.43471616886E+01 0.44070204716E+01 0.45932433384E+01 0.49267230820E+01 0.54450098346E+01
 0.62049010157E+01 0.72830201502E+01 0.87712968494E+01 0.10763970091E+02 0.13340538348E+02
 0.16678395043E+02 0.21004424199E+02 0.26379585259E+02 0.32656829922E+02 0.39495465587E+02
 0.61026121760E+02 0.68162423531E+02 0.73854743140E+02 0.77791144333E+02 0.79796360437E+02
 0.79796363575E+02 0.77791152886E+02 0.73854754730E+02 0.68162435040E+02 0.61026130295E+02
 0.52909472651E+02 0.44398782530E+02 0.36124557513E+02 0.28651055571E+02 0.22368342336E+02
 0.17423005167E+02 0.13709849779E+02 0.10928733785E+02 0.88232164640E+01 0.72830219638E+01
 0.61927722923E+01 0.54451983483E+01 0.49542518197E+01 0.46585471719E+01 0.45197750808E+01
 0.45197757191E+01 0.46585487403E+01 0.49542534795E+01 0.54451991498E+01 0.61927716984E+01
 0.72830201502E+01 0.88232143884E+01 0.10928732808E+02 0.13709851145E+02 0.17423009362E+02
 0.22368348747E+02 0.28651062533E+02 0.36124562707E+02 0.44398783856E+02 0.52909468910E+02
 0.76825852292E+02 0.83929386793E+02 0.89140011548E+02 0.92298868568E+02 0.93354614637E+02
 0.92298875721E+02 0.89140024245E+02 0.83929402283E+02 0.76825867453E+02 0.68162435040E+02
 0.58473022635E+02 0.48451338420E+02 0.38842562969E+02 0.30298880852E+02 0.23247499893E+02
 0.17815991043E+02 0.13836980735E+02 0.10928733611E+02 0.87712982095E+01 0.72260129427E+01
 0.61577469951E+01 0.54466959893E+01 0.50005868003E+01 0.47566522846E+01 0.46791798497E+01
 0.47566527665E+01 0.50005874232E+01 0.54466962550E+01 0.61577465449E+01 0.72260117952E+01
 0.87712968494E+01 0.10928732808E+02 0.13836981225E+02 0.17815993074E+02 0.23247502976E+02
 0.30298883703E+02 0.38842563799E+02 0.48451335540E+02 0.58473015008E+02 0.68162422864E+02
 0.92321768933E+02 0.98678639340E+02 0.10288428394E+03 0.10496251777E+03 0.10496252045E+03
 0.10288429153E+03 0.98678650610E+02 0.92321782115E+02 0.83929402283E+02 0.73854754730E+02
 0.62717206476E+02 0.51334716407E+02 0.40573570453E+02 0.31164775081E+02 0.23551171803E+02
 0.17815992079E+02 0.13709850317E+02 0.10763969777E+02 0.86199474274E+01 0.71171092006E+01
 0.61037079069E+01 0.54516209738E+01 0.50665816683E+01 0.48885033895E+01 0.48885031838E+01
 0.50665810954E+01 0.54516201498E+01 0.61037070320E+01 0.71171085164E+01 0.86199471755E+01
 0.10763970091E+02 0.13709851145E+02 0.17815993074E+02 0.23551172343E+02 0.31164774308E+02
 0.40573567484E+02 0.51334710574E+02 0.62717197536E+02 0.73854743110E+02 0.83929389074E+02
 0.10600988568E+03 0.11106261389E+03 0.11397288326E+03 0.11491731774E+03 0.11397288366E+03
 0.11106261508E+03 0.10600988826E+03 0.98678650610E+02 0.89140024245E+02 0.77791152886E+02
 0.65367496754E+02 0.52831018564E+02 0.41167601190E+02 0.31164777053E+02 0.23247503198E+02
 0.17423007795E+02 0.13340536120E+02 0.10447796676E+02 0.83817453052E+01 0.69657685697E+01
 0.60364876169E+01 0.54628970023E+01 0.51537656818E+01 0.50564256490E+01 0.51537643805E+01
 0.54628949510E+01 0.60364856971E+01 0.69657676251E+01 0.83817457869E+01 0.10447798416E+02
 0.13340538348E+02 0.17423009362E+02 0.23247502976E+02 0.31164774308E+02 0.41167595864E+02
 0.52831011276E+02 0.65367488612E+02 0.77791145157E+02 0.89140017921E+02 0.98678646187E+02
 0.11677279119E+03 0.12026453001E+03 0.12188960216E+03 0.12188959901E+03 0.12026452150E+03
 0.11677277988E+03 0.11106261508E+03 0.10288429153E+03 0.92298875721E+02 0.79796363575E+02
 0.66267602493E+02 0.52831018725E+02 0.40573573361E+02 0.30298886392E+02 0.22368347987E+02
 0.16678391896E+02 0.12762201234E+02 0.10005217538E+02 0.80756819854E+01 0.67844226488E+01
 0.59630796573E+01 0.54840310350E+01 0.52645655623E+01 0.52645644713E+01 0.54840282711E+01
 0.59630765328E+01 0.67844206868E+01 0.80756822363E+01 0.10005220050E+02 0.12762204962E+02
 0.16678395043E+02 0.22368348747E+02 0.30298883703E+02 0.40573567484E+02 0.52831011276E+02
 0.66267595994E+02 0.79796360581E+02 0.92298877856E+02 0.10288429885E+03 0.11106262588E+03
 0.12415494067E+03 0.12617326273E+03 0.12678508618E+03 0.12617325075E+03 0.12415491974E+03
 0.12026452150E+03 0.11397288366E+03 0.10496252045E+03 0.93354614637E+02 0.79796360437E+02
 0.65367493706E+02 0.51334717181E+02 0.38842568588E+02 0.28651063648E+02 0.21004421681E+02
 0.15656735594E+02 0.12020509922E+02 0.94696959910E+01 0.77245742007E+01 0.65867948677E+01
 0.58907972134E+01 0.55188900122E+01 0.54023940763E+01 0.55188875254E+01 0.58907934579E+01
 0.65867917244E+01 0.77245733434E+01 0.94696980730E+01 0.12020514192E+02 0.15656740134E+02
 0.21004424199E+02 0.28651062533E+02 0.38842563799E+02 0.51334710574E+02 0.65367488612E+02
 0.79796360581E+02 0.93354622733E+02 0.10496253706E+03 0.11397290660E+03 0.12026454625E+03
 0.12841955724E+03 0.12932355874E+03 0.12932355100E+03 0.12841953585E+03 0.12617325075E+03
 0.12188959901E+03 0.11491731774E+03 0.10496251777E+03 0.92298868568E+02 0.77791144333E+02
 0.62717201643E+02 0.48451340527E+02 0.36124565432E+02 0.26379584413E+02 0.19291012009E+02
 0.14450799606E+02 0.11165494926E+02 0.88789391448E+01 0.73521389825E+01 0.63862301435E+01
 0.58265223795E+01 0.55714522638E+01 0.55714509364E+01 0.58265190543E+01 0.63862264934E+01
 0.73521369124E+01 0.88789398839E+01 0.11165498387E+02 0.14450804337E+02 0.19291015783E+02
 0.26379585259E+02 0.36124562707E+02 0.48451335540E+02 0.62717197536E+02 0.77791145157E+02
 0.92298877856E+02 0.10496253706E+03 0.11491734563E+03 0.12188963115E+03 0.12617328080E+03
 0.13036916465E+03 0.13062772142E+03 0.13036915092E+03 0.12932355100E+03 0.12678508618E+03
 0.12188960216E+03 0.11397288326E+03 0.10288428394E+03 0.89140011548E+02 0.73854743140E+02
 0.58473018091E+02 0.44398786765E+02 0.32656830580E+02 0.23696996867E+02 0.17385379599E+02
 0.13151967588E+02 0.10253601327E+02 0.82703159294E+01 0.69802360264E+01 0.61943118409E+01
 0.57761216753E+01 0.56454766664E+01 0.57761196666E+01 0.61943088311E+01 0.69802335607E+01
 0.82703153557E+01 0.10253603132E+02 0.13151971099E+02 0.17385383239E+02 0.23696998873E+02
 0.32656829922E+02 0.44398783856E+02 0.58473015008E+02 0.73854743110E+02 0.89140017921E+02
 0.10288429885E+03 0.11397290660E+03 0.12188963115E+03 0.12678511582E+03 0.12932357534E+03
 0.13099896295E+03 0.13099895874E+03 0.13062772142E+03 0.12932355874E+03 0.12617326273E+03
 0.12026453001E+03 0.11106261389E+03 0.98678639340E+02 0.83929386793E+02 0.68162423531E+02
 0.52909470538E+02 0.39495466578E+02 0.28740096402E+02 0.20839737521E+02 0.15438668411E+02
 0.11830287604E+02 0.93395817401E+01 0.76766888567E+01 0.66267268113E+01 0.60199389123E+01
 0.57440380176E+01 0.57440374178E+01 0.60199374121E+01 0.66267251723E+01 0.76766879391E+01
 0.93395820915E+01 0.11830289168E+02 0.15438670524E+02 0.20839739195E+02 0.28740096826E+02
 0.39495465587E+02 0.52909468910E+02 0.68162422864E+02 0.83929389074E+02 0.98678646187E+02
 0.11106262588E+03 0.12026454625E+03 0.12617328080E+03 0.12932357534E+03 0.13062773310E+03
 0.13099896295E+03 0.13062773310E+03 0.12932357534E+03 0.12617328080E+03 0.12026454625E+03
 0.11106262588E+03 0.98678646187E+02 0.83929389074E+02 0.68162422864E+02 0.52909468910E+02
 0.39495465587E+02 0.28740096826E+02 0.20839739195E+02 0.15438670524E+02 0.11830289168E+02
 0.93395820915E+01 0.76766879391E+01 0.66267251723E+01 0.60199374121E+01 0.57440374178E+01
 0.57440380176E+01 0.60199389123E+01 0.66267268113E+01 0.76766888567E+01 0.93395817401E+01
 0.11830287604E+02 0.15438668411E+02 0.20839737521E+02 0.28740096402E+02 0.39495466578E+02