PROCAR lm decomposed
# of k-points:  110         # of bands:   24         # of ions:    1

 k-point     1 :    0.05000000 0.05000000 0.05000000     weight = 0.00200000

band     1 # energy  -40.36997496 # occ.  2.00000000
 
ion      s     py     pz     px    dxy    dyz    dz2    dxz  x2-y2    tot
    1  0.000  0.332  0.332  0.332  0.000  0.000  0.000  0.000  0.000  0.996
 
band     2 # energy  -40.35937356 # occ.  2.00000000
 
ion      s     py     pz     px    dxy    dyz    dz2    dxz  x2-y2    tot
    1  0.000  0.002  0.495  0.500  0.000  0.000  0.000  0.000  0.000  0.997
 
band     3 # energy  -40.35937356 # occ.  2.00000000
 
ion      s     py     pz     px    dxy    dyz    dz2    dxz  x2-y2    tot
    1  0.000  0.663  0.169  0.165  0.000  0.000  0.000  0.000  0.000  0.997
 
band     4 # energy    1.97377726 # occ.  2.00000000
 
ion      s     py     pz     px    dxy    dyz    dz2    dxz  x2-y2    tot
    1  0.402  0.000  0.000  0.000  0.000  0.000  0.000  0.000  0.000  0.403
 
band     5 # energy    8.31019190 # occ.  2.00000000
 
ion      s     py     pz     px    dxy    dyz    dz2    dxz  x2-y2    tot
    1  0.000  0.000  0.000  0.000  0.281  0.281  0.000  0.281  0.000  0.844
 
band     6 # energy    8.39809915 # occ.  2.00000000
 
ion      s     py     pz     px    dxy    dyz    dz2    dxz  x2-y2    tot
    1  0.000  0.000  0.000  0.000  0.000  0.424  0.000  0.424  0.000  0.849
 
band     7 # energy    8.39809915 # occ.  2.00000000
 
ion      s     py     pz     px    dxy    dyz    dz2    dxz  x2-y2    tot
    1  0.000  0.000  0.000  0.000  0.566  0.142  0.000  0.141  0.000  0.849
 
band     8 # energy   10.52510952 # occ.  2.00000000
 
ion      s     py     pz     px    dxy    dyz    dz2    dxz  x2-y2    tot
    1  0.000  0.000  0.000  0.000  0.000  0.000  0.000  0.000  0.912  0.912
 
band     9 # energy   10.52510952 # occ.  2.00000000
 
ion      s     py     pz     px    dxy    dyz    dz2    dxz  x2-y2    tot
    1  0.000  0.000  0.000  0.000  0.000  0.000  0.912  0.000  0.000  0.912
 
band    10 # energy   26.94826075 # occ.  0.00000000
 
ion      s     py     pz     px    dxy    dyz    dz2    dxz  x2-y2    tot
    1  0.000  0.000  0.000  0.000  0.002  0.002  0.000  0.002  0.000  0.007
 
band    11 # energy   31.23826319 # occ.  0.00000000
 
ion      s     py     pz     px    dxy    dyz    dz2    dxz  x2-y2    tot
    1  0.009  0.021  0.021  0.021  0.002  0.002  0.000  0.002  0.000  0.078
 
band    12 # energy   31.94740888 # occ.  0.00000000
 
ion      s     py     pz     px    dxy    dyz    dz2    dxz  x2-y2    tot
    1  0.000  0.028  0.002  0.039  0.000  0.001  0.000  0.001  0.003  0.074
 
band    13 # energy   31.94740888 # occ.  0.00000000
 
ion      s     py     pz     px    dxy    dyz    dz2    dxz  x2-y2    tot
    1  0.000  0.018  0.044  0.007  0.001  0.000  0.003  0.000  0.000  0.074
 
band    14 # energy   37.79594150 # occ.  0.00000000
 
ion      s     py     pz     px    dxy    dyz    dz2    dxz  x2-y2    tot
    1  0.045  0.005  0.005  0.005  0.001  0.001  0.000  0.001  0.000  0.063
 
band    15 # energy   42.89163438 # occ.  0.00000000
 
ion      s     py     pz     px    dxy    dyz    dz2    dxz  x2-y2    tot
    1  0.008  0.055  0.055  0.055  0.108  0.108  0.000  0.108  0.000  0.496
 
band    16 # energy   43.63916208 # occ.  0.00000000
 
ion      s     py     pz     px    dxy    dyz    dz2    dxz  x2-y2    tot
    1  0.000  0.042  0.000  0.044  0.000  0.213  0.000  0.200  0.002  0.502
 
band    17 # energy   43.63916208 # occ.  0.00000000
 
ion      s     py     pz     px    dxy    dyz    dz2    dxz  x2-y2    tot
    1  0.000  0.016  0.057  0.013  0.276  0.063  0.002  0.076  0.000  0.502
 
band    18 # energy   47.00061217 # occ.  0.00000000
 
ion      s     py     pz     px    dxy    dyz    dz2    dxz  x2-y2    tot
    1  0.000  0.254  0.002  0.305  0.000  0.046  0.000  0.038  0.017  0.664
 
band    19 # energy   47.00061217 # occ.  0.00000000
 
ion      s     py     pz     px    dxy    dyz    dz2    dxz  x2-y2    tot
    1  0.000  0.120  0.372  0.070  0.056  0.010  0.017  0.018  0.000  0.664
 
band    20 # energy   47.93500051 # occ.  0.00000000
 
ion      s     py     pz     px    dxy    dyz    dz2    dxz  x2-y2    tot
    1  0.026  0.153  0.153  0.153  0.060  0.060  0.000  0.060  0.000  0.667
 
band    21 # energy   52.84765114 # occ.  0.00000000
 
ion      s     py     pz     px    dxy    dyz    dz2    dxz  x2-y2    tot
    1  6.302  0.000  0.000  0.000  0.000  0.000  0.000  0.000  0.000  6.302
 
band    22 # energy   53.72039911 # occ.  0.00000000
 
ion      s     py     pz     px    dxy    dyz    dz2    dxz  x2-y2    tot
    1  0.000  0.009  0.001  0.017  0.000  0.000  0.029  0.000  0.431  0.487
 
band    23 # energy   53.72039911 # occ.  0.00000000
 
ion      s     py     pz     px    dxy    dyz    dz2    dxz  x2-y2    tot
    1  0.000  0.009  0.017  0.001  0.000  0.000  0.431  0.000  0.029  0.487
 
band    24 # energy   61.09382714 # occ.  0.00000000
 
ion      s     py     pz     px    dxy    dyz    dz2    dxz  x2-y2    tot
    1  0.000  0.000  0.000  0.000  0.000  0.000  0.000  0.000  0.000  0.000
 

 k-point     2 :    0.15000000 0.05000000 0.05000000     weight = 0.00600000

band     1 # energy  -40.42765923 # occ.  2.00000000
 
ion      s     py     pz     px    dxy    dyz    dz2    dxz  x2-y2    tot
    1  0.000  0.455  0.455  0.085  0.000  0.000  0.000  0.000  0.000  0.995
 
band     2 # energy  -40.37635449 # occ.  2.00000000
 
ion      s     py     pz     px    dxy    dyz    dz2    dxz  x2-y2    tot
    1  0.000  0.042  0.042  0.911  0.000  0.000  0.000  0.000  0.000  0.996
 
band     3 # energy  -40.36482135 # occ.  2.00000000
 
ion      s     py     pz     px    dxy    dyz    dz2    dxz  x2-y2    tot
    1  0.000  0.498  0.498  0.000  0.000  0.000  0.000  0.000  0.000  0.997
 
band     4 # energy    2.50079759 # occ.  2.00000000
 
ion      s     py     pz     px    dxy    dyz    dz2    dxz  x2-y2    tot
    1  0.389  0.004  0.004  0.000  0.000  0.002  0.000  0.000  0.000  0.401
 
band     5 # energy    8.07379174 # occ.  2.00000000
 
ion      s     py     pz     px    dxy    dyz    dz2    dxz  x2-y2    tot
    1  0.000  0.000  0.000  0.002  0.396  0.029  0.000  0.396  0.000  0.823
 
band     6 # energy    8.58197347 # occ.  2.00000000
 
ion      s     py     pz     px    dxy    dyz    dz2    dxz  x2-y2    tot
    1  0.000  0.000  0.000  0.000  0.424  0.000  0.003  0.424  0.001  0.852
 
band     7 # energy    8.62178677 # occ.  2.00000000
 
ion      s     py     pz     px    dxy    dyz    dz2    dxz  x2-y2    tot
    1  0.000  0.001  0.001  0.000  0.015  0.791  0.006  0.015  0.018  0.848
 
band     8 # energy   10.29355015 # occ.  2.00000000
 
ion      s     py     pz     px    dxy    dyz    dz2    dxz  x2-y2    tot
    1  0.000  0.000  0.000  0.000  0.002  0.000  0.670  0.002  0.223  0.898
 
band     9 # energy   10.58286440 # occ.  2.00000000
 
ion      s     py     pz     px    dxy    dyz    dz2    dxz  x2-y2    tot
    1  0.000  0.000  0.000  0.000  0.001  0.024  0.221  0.001  0.663  0.909
 
band    10 # energy   27.71697476 # occ.  0.00000000
 
ion      s     py     pz     px    dxy    dyz    dz2    dxz  x2-y2    tot
    1  0.000  0.000  0.000  0.001  0.021  0.002  0.000  0.021  0.000  0.045
 
band    11 # energy   29.53070605 # occ.  0.00000000
 
ion      s     py     pz     px    dxy    dyz    dz2    dxz  x2-y2    tot
    1  0.033  0.025  0.025  0.007  0.003  0.017  0.001  0.003  0.004  0.118
 
band    12 # energy   32.09096492 # occ.  0.00000000
 
ion      s     py     pz     px    dxy    dyz    dz2    dxz  x2-y2    tot
    1  0.000  0.003  0.003  0.088  0.011  0.002  0.001  0.011  0.004  0.123
 
band    13 # energy   33.08465126 # occ.  0.00000000
 
ion      s     py     pz     px    dxy    dyz    dz2    dxz  x2-y2    tot
    1  0.000  0.032  0.032  0.000  0.001  0.000  0.022  0.001  0.007  0.096
 
band    14 # energy   38.48601111 # occ.  0.00000000
 
ion      s     py     pz     px    dxy    dyz    dz2    dxz  x2-y2    tot
    1  0.003  0.103  0.103  0.009  0.006  0.113  0.000  0.006  0.001  0.344
 
band    15 # energy   40.91499357 # occ.  0.00000000
 
ion      s     py     pz     px    dxy    dyz    dz2    dxz  x2-y2    tot
    1  0.019  0.009  0.009  0.112  0.053  0.056  0.003  0.053  0.008  0.322
 
band    16 # energy   41.30549757 # occ.  0.00000000
 
ion      s     py     pz     px    dxy    dyz    dz2    dxz  x2-y2    tot
    1  0.048  0.002  0.002  0.071  0.044  0.004  0.000  0.044  0.001  0.218
 
band    17 # energy   42.67980891 # occ.  0.00000000
 
ion      s     py     pz     px    dxy    dyz    dz2    dxz  x2-y2    tot
    1  0.000  0.077  0.077  0.000  0.148  0.000  0.015  0.148  0.005  0.471
 
band    18 # energy   45.29094929 # occ.  0.00000000
 
ion      s     py     pz     px    dxy    dyz    dz2    dxz  x2-y2    tot
    1  0.000  0.195  0.195  0.000  0.075  0.000  0.046  0.075  0.015  0.602
 
band    19 # energy   48.42527772 # occ.  0.00000000
 
ion      s     py     pz     px    dxy    dyz    dz2    dxz  x2-y2    tot
    1  0.077  0.120  0.120  0.031  0.000  0.261  0.007  0.000  0.020  0.636
 
band    20 # energy   50.70852840 # occ.  0.00000000
 
ion      s     py     pz     px    dxy    dyz    dz2    dxz  x2-y2    tot
    1  0.036  0.005  0.005  0.330  0.130  0.003  0.009  0.130  0.026  0.674
 
band    21 # energy   52.50778821 # occ.  0.00000000
 
ion      s     py     pz     px    dxy    dyz    dz2    dxz  x2-y2    tot
    1  0.011  0.007  0.007  0.078  0.007  0.011  0.067  0.007  0.202  0.396
 
band    22 # energy   52.83857914 # occ.  0.00000000
 
ion      s     py     pz     px    dxy    dyz    dz2    dxz  x2-y2    tot
    1  6.280  0.000  0.000  0.000  0.000  0.000  0.000  0.000  0.000  6.281
 
band    23 # energy   54.89415551 # occ.  0.00000000
 
ion      s     py     pz     px    dxy    dyz    dz2    dxz  x2-y2    tot
    1  0.000  0.061  0.061  0.000  0.001  0.000  0.238  0.001  0.079  0.441
 
band    24 # energy   61.70278414 # occ.  0.00000000
 
ion      s     py     pz     px    dxy    dyz    dz2    dxz  x2-y2    tot
    1  0.000  0.000  0.000  0.000  0.007  0.000  0.032  0.007  0.011  0.056
 

 k-point     3 :    0.25000000 0.05000000 0.05000000     weight = 0.00600000

band     1 # energy  -40.55494562 # occ.  2.00000000
 
ion      s     py     pz     px    dxy    dyz    dz2    dxz  x2-y2    tot
    1  0.000  0.389  0.389  0.212  0.000  0.000  0.000  0.000  0.000  0.990
 
band     2 # energy  -40.39948702 # occ.  2.00000000
 
ion      s     py     pz     px    dxy    dyz    dz2    dxz  x2-y2    tot
    1  0.000  0.106  0.106  0.783  0.000  0.000  0.000  0.000  0.000  0.996
 
band     3 # energy  -40.38181095 # occ.  2.00000000
 
ion      s     py     pz     px    dxy    dyz    dz2    dxz  x2-y2    tot
    1  0.000  0.498  0.498  0.000  0.000  0.000  0.000  0.000  0.000  0.996
 
band     4 # energy    3.62489772 # occ.  2.00000000
 
ion      s     py     pz     px    dxy    dyz    dz2    dxz  x2-y2    tot
    1  0.348  0.009  0.009  0.003  0.012  0.022  0.000  0.012  0.001  0.414
 
band     5 # energy    7.84745741 # occ.  2.00000000
 
ion      s     py     pz     px    dxy    dyz    dz2    dxz  x2-y2    tot
    1  0.010  0.003  0.003  0.007  0.337  0.064  0.000  0.337  0.000  0.762
 
band     6 # energy    8.77360983 # occ.  2.00000000
 
ion      s     py     pz     px    dxy    dyz    dz2    dxz  x2-y2    tot
    1  0.001  0.001  0.001  0.000  0.035  0.573  0.049  0.035  0.147  0.843
 
band     7 # energy    8.81341299 # occ.  2.00000000
 
ion      s     py     pz     px    dxy    dyz    dz2    dxz  x2-y2    tot
    1  0.000  0.000  0.000  0.000  0.348  0.000  0.119  0.348  0.040  0.854
 
band     8 # energy   10.27698634 # occ.  2.00000000
 
ion      s     py     pz     px    dxy    dyz    dz2    dxz  x2-y2    tot
    1  0.000  0.000  0.000  0.000  0.083  0.000  0.541  0.083  0.180  0.888
 
band     9 # energy   10.85234130 # occ.  2.00000000
 
ion      s     py     pz     px    dxy    dyz    dz2    dxz  x2-y2    tot
    1  0.002  0.001  0.001  0.000  0.011  0.181  0.174  0.011  0.523  0.905
 
band    10 # energy   26.66480694 # occ.  0.00000000
 
ion      s     py     pz     px    dxy    dyz    dz2    dxz  x2-y2    tot
    1  0.081  0.029  0.029  0.025  0.026  0.042  0.001  0.026  0.003  0.261
 
band    11 # energy   28.71583010 # occ.  0.00000000
 
ion      s     py     pz     px    dxy    dyz    dz2    dxz  x2-y2    tot
    1  0.001  0.002  0.002  0.009  0.048  0.013  0.000  0.048  0.001  0.123
 
band    12 # energy   33.23745107 # occ.  0.00000000
 
ion      s     py     pz     px    dxy    dyz    dz2    dxz  x2-y2    tot
    1  0.001  0.013  0.013  0.124  0.017  0.027  0.006  0.017  0.018  0.236
 
band    13 # energy   35.19861441 # occ.  0.00000000
 
ion      s     py     pz     px    dxy    dyz    dz2    dxz  x2-y2    tot
    1  0.038  0.083  0.083  0.003  0.000  0.043  0.002  0.000  0.006  0.259
 
band    14 # energy   35.21346303 # occ.  0.00000000
 
ion      s     py     pz     px    dxy    dyz    dz2    dxz  x2-y2    tot
    1  0.000  0.034  0.034  0.000  0.008  0.000  0.056  0.008  0.019  0.159
 
band    15 # energy   38.55806033 # occ.  0.00000000
 
ion      s     py     pz     px    dxy    dyz    dz2    dxz  x2-y2    tot
    1  0.003  0.000  0.000  0.119  0.024  0.014  0.008  0.024  0.023  0.216
 
band    16 # energy   38.66640645 # occ.  0.00000000
 
ion      s     py     pz     px    dxy    dyz    dz2    dxz  x2-y2    tot
    1  0.000  0.109  0.109  0.000  0.060  0.000  0.033  0.060  0.011  0.383
 
band    17 # energy   45.20851621 # occ.  0.00000000
 
ion      s     py     pz     px    dxy    dyz    dz2    dxz  x2-y2    tot
    1  0.078  0.000  0.000  0.000  0.000  0.007  0.002  0.000  0.007  0.095
 
band    18 # energy   45.70450579 # occ.  0.00000000
 
ion      s     py     pz     px    dxy    dyz    dz2    dxz  x2-y2    tot
    1  0.000  0.129  0.129  0.000  0.116  0.000  0.049  0.116  0.016  0.556
 
band    19 # energy   49.03174253 # occ.  0.00000000
 
ion      s     py     pz     px    dxy    dyz    dz2    dxz  x2-y2    tot
    1  0.057  0.064  0.064  0.089  0.001  0.250  0.016  0.001  0.047  0.591
 
band    20 # energy   51.06029296 # occ.  0.00000000
 
ion      s     py     pz     px    dxy    dyz    dz2    dxz  x2-y2    tot
    1  0.109  0.007  0.007  0.014  0.096  0.000  0.030  0.096  0.091  0.451
 
band    21 # energy   52.83276251 # occ.  0.00000000
 
ion      s     py     pz     px    dxy    dyz    dz2    dxz  x2-y2    tot
    1  6.271  0.000  0.000  0.000  0.000  0.000  0.000  0.000  0.000  6.272
 
band    22 # energy   53.75015792 # occ.  0.00000000
 
ion      s     py     pz     px    dxy    dyz    dz2    dxz  x2-y2    tot
    1  0.025  0.012  0.012  0.251  0.063  0.039  0.010  0.063  0.029  0.504
 
band    23 # energy   55.52703590 # occ.  0.00000000
 
ion      s     py     pz     px    dxy    dyz    dz2    dxz  x2-y2    tot
    1  0.000  0.086  0.086  0.000  0.007  0.000  0.125  0.007  0.042  0.353
 
band    24 # energy   62.01484877 # occ.  0.00000000
 
ion      s     py     pz     px    dxy    dyz    dz2    dxz  x2-y2    tot
    1  0.000  0.000  0.000  0.000  0.002  0.000  0.041  0.002  0.014  0.058
 

 k-point     4 :    0.35000000 0.05000000 0.05000000     weight = 0.00600000

band     1 # energy  -40.69958154 # occ.  2.00000000
 
ion      s     py     pz     px    dxy    dyz    dz2    dxz  x2-y2    tot
    1  0.000  0.359  0.359  0.268  0.000  0.000  0.000  0.000  0.000  0.986
 
band     2 # energy  -40.42122657 # occ.  2.00000000
 
ion      s     py     pz     px    dxy    dyz    dz2    dxz  x2-y2    tot
    1  0.000  0.135  0.135  0.725  0.000  0.000  0.000  0.000  0.000  0.995
 
band     3 # energy  -40.40336791 # occ.  2.00000000
 
ion      s     py     pz     px    dxy    dyz    dz2    dxz  x2-y2    tot
    1  0.000  0.498  0.498  0.000  0.000  0.000  0.000  0.000  0.000  0.996
 
band     4 # energy    4.61458814 # occ.  2.00000000
 
ion      s     py     pz     px    dxy    dyz    dz2    dxz  x2-y2    tot
    1  0.242  0.007  0.007  0.002  0.083  0.095  0.000  0.083  0.001  0.519
 
band     5 # energy    8.43143688 # occ.  2.00000000
 
ion      s     py     pz     px    dxy    dyz    dz2    dxz  x2-y2    tot
    1  0.044  0.011  0.011  0.017  0.265  0.010  0.011  0.265  0.033  0.665
 
band     6 # energy    8.61806621 # occ.  2.00000000
 
ion      s     py     pz     px    dxy    dyz    dz2    dxz  x2-y2    tot
    1  0.015  0.008  0.008  0.003  0.000  0.366  0.090  0.000  0.270  0.760
 
band     7 # energy    8.65133307 # occ.  2.00000000
 
ion      s     py     pz     px    dxy    dyz    dz2    dxz  x2-y2    tot
    1  0.000  0.000  0.000  0.000  0.217  0.000  0.308  0.217  0.103  0.844
 
band     8 # energy   10.95245962 # occ.  2.00000000
 
ion      s     py     pz     px    dxy    dyz    dz2    dxz  x2-y2    tot
    1  0.000  0.001  0.001  0.000  0.222  0.000  0.344  0.222  0.115  0.903
 
band     9 # energy   11.61506678 # occ.  2.00000000
 
ion      s     py     pz     px    dxy    dyz    dz2    dxz  x2-y2    tot
    1  0.007  0.002  0.002  0.000  0.027  0.364  0.119  0.027  0.358  0.908
 
band    10 # energy   23.21941458 # occ.  0.00000000
 
ion      s     py     pz     px    dxy    dyz    dz2    dxz  x2-y2    tot
    1  0.173  0.032  0.032  0.033  0.064  0.071  0.001  0.064  0.002  0.472
 
band    11 # energy   27.91968894 # occ.  0.00000000
 
ion      s     py     pz     px    dxy    dyz    dz2    dxz  x2-y2    tot
    1  0.005  0.006  0.006  0.012  0.030  0.007  0.001  0.030  0.003  0.101
 
band    12 # energy   32.65128343 # occ.  0.00000000
 
ion      s     py     pz     px    dxy    dyz    dz2    dxz  x2-y2    tot
    1  0.010  0.050  0.050  0.137  0.028  0.033  0.000  0.028  0.001  0.336
 
band    13 # energy   34.88792996 # occ.  0.00000000
 
ion      s     py     pz     px    dxy    dyz    dz2    dxz  x2-y2    tot
    1  0.000  0.118  0.118  0.000  0.031  0.000  0.017  0.031  0.006  0.320
 
band    14 # energy   36.03970371 # occ.  0.00000000
 
ion      s     py     pz     px    dxy    dyz    dz2    dxz  x2-y2    tot
    1  0.017  0.006  0.006  0.042  0.001  0.017  0.014  0.001  0.042  0.147
 
band    15 # energy   37.90971339 # occ.  0.00000000
 
ion      s     py     pz     px    dxy    dyz    dz2    dxz  x2-y2    tot
    1  0.000  0.013  0.013  0.000  0.017  0.000  0.127  0.017  0.042  0.231
 
band    16 # energy   38.46938070 # occ.  0.00000000
 
ion      s     py     pz     px    dxy    dyz    dz2    dxz  x2-y2    tot
    1  0.022  0.007  0.007  0.024  0.004  0.000  0.017  0.004  0.052  0.137
 
band    17 # energy   46.12050892 # occ.  0.00000000
 
ion      s     py     pz     px    dxy    dyz    dz2    dxz  x2-y2    tot
    1  0.000  0.131  0.131  0.000  0.091  0.000  0.039  0.091  0.013  0.496
 
band    18 # energy   48.36932128 # occ.  0.00000000
 
ion      s     py     pz     px    dxy    dyz    dz2    dxz  x2-y2    tot
    1  0.144  0.012  0.012  0.074  0.000  0.184  0.016  0.000  0.049  0.492
 
band    19 # energy   50.47629558 # occ.  0.00000000
 
ion      s     py     pz     px    dxy    dyz    dz2    dxz  x2-y2    tot
    1  0.065  0.032  0.032  0.058  0.060  0.016  0.015  0.060  0.044  0.382
 
band    20 # energy   51.64422845 # occ.  0.00000000
 
ion      s     py     pz     px    dxy    dyz    dz2    dxz  x2-y2    tot
    1  0.039  0.016  0.016  0.021  0.044  0.004  0.007  0.044  0.021  0.213
 
band    21 # energy   52.84026286 # occ.  0.00000000
 
ion      s     py     pz     px    dxy    dyz    dz2    dxz  x2-y2    tot
    1  6.273  0.000  0.000  0.000  0.000  0.000  0.000  0.000  0.000  6.273
 
band    22 # energy   54.38931882 # occ.  0.00000000
 
ion      s     py     pz     px    dxy    dyz    dz2    dxz  x2-y2    tot
    1  0.010  0.029  0.029  0.133  0.023  0.077  0.002  0.023  0.006  0.331
 
band    23 # energy   56.21781219 # occ.  0.00000000
 
ion      s     py     pz     px    dxy    dyz    dz2    dxz  x2-y2    tot
    1  0.000  0.093  0.093  0.000  0.015  0.000  0.061  0.015  0.020  0.297
 
band    24 # energy   61.01551136 # occ.  0.00000000
 
ion      s     py     pz     px    dxy    dyz    dz2    dxz  x2-y2    tot
    1  0.000  0.002  0.002  0.000  0.041  0.000  0.069  0.041  0.023  0.179
 

 k-point     5 :    0.45000000 0.05000000 0.05000000     weight = 0.00600000

band     1 # energy  -40.80591927 # occ.  2.00000000
 
ion      s     py     pz     px    dxy    dyz    dz2    dxz  x2-y2    tot
    1  0.000  0.339  0.339  0.304  0.000  0.000  0.000  0.000  0.000  0.982
 
band     2 # energy  -40.43509456 # occ.  2.00000000
 
ion      s     py     pz     px    dxy    dyz    dz2    dxz  x2-y2    tot
    1  0.000  0.154  0.154  0.686  0.000  0.000  0.000  0.000  0.000  0.995
 
band     3 # energy  -40.42201926 # occ.  2.00000000
 
ion      s     py     pz     px    dxy    dyz    dz2    dxz  x2-y2    tot
    1  0.000  0.498  0.498  0.000  0.000  0.000  0.000  0.000  0.000  0.995
 
band     4 # energy    4.85941240 # occ.  2.00000000
 
ion      s     py     pz     px    dxy    dyz    dz2    dxz  x2-y2    tot
    1  0.154  0.002  0.002  0.000  0.153  0.157  0.000  0.153  0.000  0.621
 
band     5 # energy    8.31834756 # occ.  2.00000000
 
ion      s     py     pz     px    dxy    dyz    dz2    dxz  x2-y2    tot
    1  0.000  0.000  0.000  0.000  0.055  0.246  0.118  0.055  0.354  0.829
 
band     6 # energy    8.42001957 # occ.  2.00000000
 
ion      s     py     pz     px    dxy    dyz    dz2    dxz  x2-y2    tot
    1  0.000  0.000  0.000  0.000  0.173  0.000  0.367  0.173  0.122  0.836
 
band     7 # energy   10.22647137 # occ.  2.00000000
 
ion      s     py     pz     px    dxy    dyz    dz2    dxz  x2-y2    tot
    1  0.046  0.037  0.037  0.038  0.107  0.008  0.015  0.107  0.044  0.438
 
band     8 # energy   11.82034366 # occ.  2.00000000
 
ion      s     py     pz     px    dxy    dyz    dz2    dxz  x2-y2    tot
    1  0.000  0.000  0.000  0.000  0.276  0.000  0.284  0.276  0.095  0.932
 
band     9 # energy   12.51303597 # occ.  0.00000000
 
ion      s     py     pz     px    dxy    dyz    dz2    dxz  x2-y2    tot
    1  0.018  0.010  0.010  0.006  0.027  0.407  0.086  0.027  0.257  0.847
 
band    10 # energy   19.61638604 # occ.  0.00000000
 
ion      s     py     pz     px    dxy    dyz    dz2    dxz  x2-y2    tot
    1  0.294  0.016  0.016  0.020  0.111  0.098  0.001  0.111  0.002  0.668
 
band    11 # energy   26.81637444 # occ.  0.00000000
 
ion      s     py     pz     px    dxy    dyz    dz2    dxz  x2-y2    tot
    1  0.001  0.004  0.004  0.006  0.008  0.000  0.001  0.008  0.003  0.035
 
band    12 # energy   31.14841727 # occ.  0.00000000
 
ion      s     py     pz     px    dxy    dyz    dz2    dxz  x2-y2    tot
    1  0.005  0.039  0.039  0.145  0.015  0.003  0.000  0.015  0.001  0.261
 
band    13 # energy   32.18474079 # occ.  0.00000000
 
ion      s     py     pz     px    dxy    dyz    dz2    dxz  x2-y2    tot
    1  0.000  0.110  0.110  0.000  0.006  0.000  0.012  0.006  0.004  0.248
 
band    14 # energy   39.02249695 # occ.  0.00000000
 
ion      s     py     pz     px    dxy    dyz    dz2    dxz  x2-y2    tot
    1  0.008  0.000  0.000  0.022  0.000  0.071  0.041  0.000  0.123  0.265
 
band    15 # energy   40.11683509 # occ.  0.00000000
 
ion      s     py     pz     px    dxy    dyz    dz2    dxz  x2-y2    tot
    1  0.000  0.003  0.003  0.000  0.049  0.000  0.197  0.049  0.066  0.368
 
band    16 # energy   40.68628231 # occ.  0.00000000
 
ion      s     py     pz     px    dxy    dyz    dz2    dxz  x2-y2    tot
    1  0.068  0.008  0.008  0.010  0.051  0.007  0.011  0.051  0.034  0.248
 
band    17 # energy   46.74749951 # occ.  0.00000000
 
ion      s     py     pz     px    dxy    dyz    dz2    dxz  x2-y2    tot
    1  0.000  0.158  0.158  0.000  0.030  0.000  0.005  0.030  0.002  0.384
 
band    18 # energy   48.15623740 # occ.  0.00000000
 
ion      s     py     pz     px    dxy    dyz    dz2    dxz  x2-y2    tot
    1  0.086  0.009  0.009  0.160  0.001  0.111  0.013  0.001  0.040  0.431
 
band    19 # energy   49.44762050 # occ.  0.00000000
 
ion      s     py     pz     px    dxy    dyz    dz2    dxz  x2-y2    tot
    1  0.032  0.064  0.064  0.027  0.043  0.005  0.006  0.043  0.018  0.302
 
band    20 # energy   52.84641536 # occ.  0.00000000
 
ion      s     py     pz     px    dxy    dyz    dz2    dxz  x2-y2    tot
    1  6.293  0.000  0.000  0.000  0.000  0.000  0.000  0.000  0.000  6.293
 
band    21 # energy   53.94651120 # occ.  0.00000000
 
ion      s     py     pz     px    dxy    dyz    dz2    dxz  x2-y2    tot
    1  0.004  0.034  0.034  0.072  0.011  0.064  0.002  0.011  0.005  0.236
 
band    22 # energy   56.75202232 # occ.  0.00000000
 
ion      s     py     pz     px    dxy    dyz    dz2    dxz  x2-y2    tot
    1  0.000  0.073  0.073  0.000  0.000  0.000  0.025  0.000  0.008  0.180
 
band    23 # energy   56.93100530 # occ.  0.00000000
 
ion      s     py     pz     px    dxy    dyz    dz2    dxz  x2-y2    tot
    1  0.056  0.001  0.001  0.001  0.001  0.001  0.000  0.001  0.000  0.063
 
band    24 # energy   58.10964254 # occ.  0.00000000
 
ion      s     py     pz     px    dxy    dyz    dz2    dxz  x2-y2    tot
    1  0.000  0.015  0.015  0.000  0.118  0.000  0.005  0.118  0.002  0.273
 

 k-point     6 :   -0.45000000 0.05000000 0.05000000     weight = 0.00600000

band     1 # energy  -40.83550680 # occ.  2.00000000
 
ion      s     py     pz     px    dxy    dyz    dz2    dxz  x2-y2    tot
    1  0.000  0.323  0.323  0.335  0.000  0.000  0.000  0.000  0.000  0.981
 
band     2 # energy  -40.43500238 # occ.  2.00000000
 
ion      s     py     pz     px    dxy    dyz    dz2    dxz  x2-y2    tot
    1  0.000  0.170  0.170  0.655  0.000  0.000  0.000  0.000  0.000  0.995
 
band     3 # energy  -40.43067567 # occ.  2.00000000
 
ion      s     py     pz     px    dxy    dyz    dz2    dxz  x2-y2    tot
    1  0.000  0.497  0.497  0.000  0.000  0.000  0.000  0.000  0.000  0.995
 
band     4 # energy    4.86213847 # occ.  2.00000000
 
ion      s     py     pz     px    dxy    dyz    dz2    dxz  x2-y2    tot
    1  0.136  0.000  0.000  0.001  0.164  0.175  0.000  0.164  0.000  0.640
 
band     5 # energy    8.22635635 # occ.  2.00000000
 
ion      s     py     pz     px    dxy    dyz    dz2    dxz  x2-y2    tot
    1  0.000  0.000  0.000  0.000  0.058  0.208  0.125  0.058  0.375  0.826
 
band     6 # energy    8.36662044 # occ.  2.00000000
 
ion      s     py     pz     px    dxy    dyz    dz2    dxz  x2-y2    tot
    1  0.000  0.000  0.000  0.000  0.170  0.000  0.370  0.170  0.123  0.834
 
band     7 # energy   10.96077713 # occ.  2.00000000
 
ion      s     py     pz     px    dxy    dyz    dz2    dxz  x2-y2    tot
    1  0.003  0.037  0.037  0.036  0.028  0.199  0.030  0.028  0.089  0.488
 
band     8 # energy   12.24778391 # occ.  0.41730573
 
ion      s     py     pz     px    dxy    dyz    dz2    dxz  x2-y2    tot
    1  0.000  0.000  0.000  0.000  0.285  0.000  0.285  0.285  0.095  0.951
 
band     9 # energy   12.94486375 # occ.  0.00000000
 
ion      s     py     pz     px    dxy    dyz    dz2    dxz  x2-y2    tot
    1  0.002  0.025  0.025  0.029  0.074  0.187  0.062  0.074  0.187  0.665
 
band    10 # energy   18.12061814 # occ.  0.00000000
 
ion      s     py     pz     px    dxy    dyz    dz2    dxz  x2-y2    tot
    1  0.379  0.002  0.002  0.000  0.136  0.140  0.000  0.136  0.000  0.794
 
band    11 # energy   26.52269378 # occ.  0.00000000
 
ion      s     py     pz     px    dxy    dyz    dz2    dxz  x2-y2    tot
    1  0.000  0.003  0.003  0.005  0.000  0.004  0.001  0.000  0.004  0.021
 
band    12 # energy   31.03245245 # occ.  0.00000000
 
ion      s     py     pz     px    dxy    dyz    dz2    dxz  x2-y2    tot
    1  0.004  0.036  0.036  0.143  0.003  0.006  0.002  0.003  0.006  0.239
 
band    13 # energy   31.07677066 # occ.  0.00000000
 
ion      s     py     pz     px    dxy    dyz    dz2    dxz  x2-y2    tot
    1  0.000  0.110  0.110  0.000  0.001  0.000  0.004  0.001  0.001  0.227
 
band    14 # energy   40.34988362 # occ.  0.00000000
 
ion      s     py     pz     px    dxy    dyz    dz2    dxz  x2-y2    tot
    1  0.000  0.002  0.002  0.000  0.053  0.000  0.200  0.053  0.067  0.378
 
band    15 # energy   40.57672318 # occ.  0.00000000
 
ion      s     py     pz     px    dxy    dyz    dz2    dxz  x2-y2    tot
    1  0.000  0.000  0.000  0.001  0.015  0.082  0.070  0.015  0.210  0.393
 
band    16 # energy   42.07244319 # occ.  0.00000000
 
ion      s     py     pz     px    dxy    dyz    dz2    dxz  x2-y2    tot
    1  0.120  0.003  0.003  0.000  0.072  0.069  0.000  0.072  0.000  0.338
 
band    17 # energy   46.99102708 # occ.  0.00000000
 
ion      s     py     pz     px    dxy    dyz    dz2    dxz  x2-y2    tot
    1  0.024  0.082  0.082  0.115  0.004  0.001  0.001  0.004  0.002  0.313
 
band    18 # energy   47.84699136 # occ.  0.00000000
 
ion      s     py     pz     px    dxy    dyz    dz2    dxz  x2-y2    tot
    1  0.000  0.004  0.004  0.129  0.005  0.000  0.002  0.005  0.005  0.155
 
band    19 # energy   48.08863887 # occ.  0.00000000
 
ion      s     py     pz     px    dxy    dyz    dz2    dxz  x2-y2    tot
    1  0.000  0.168  0.168  0.000  0.002  0.000  0.018  0.002  0.006  0.366
 
band    20 # energy   52.85128950 # occ.  0.00000000
 
ion      s     py     pz     px    dxy    dyz    dz2    dxz  x2-y2    tot
    1  6.302  0.000  0.000  0.000  0.000  0.000  0.000  0.000  0.000  6.302
 
band    21 # energy   55.04646887 # occ.  0.00000000
 
ion      s     py     pz     px    dxy    dyz    dz2    dxz  x2-y2    tot
    1  0.000  0.046  0.046  0.000  0.053  0.000  0.000  0.053  0.000  0.198
 
band    22 # energy   55.65565898 # occ.  0.00000000
 
ion      s     py     pz     px    dxy    dyz    dz2    dxz  x2-y2    tot
    1  0.007  0.012  0.012  0.047  0.009  0.049  0.001  0.009  0.002  0.148
 