<?xml version="1.0" encoding="ISO-8859-1"?>
<modeling>
 <generator>
  <i name="program" type="string">vasp </i>
  <i name="version" type="string">6.3.2  </i>
  <i name="subversion" type="string">27Jun22 (build Aug 12 2022 00:53:59) complex                          parallel </i>
  <i name="platform" type="string">tv2STD </i>
  <i name="date" type="string">2024 11 30 </i>
  <i name="time" type="string">17:14:11 </i>
 </generator>
 <incar>
  <i type="string" name="SYSTEM">Pt-fcc</i>
  <i type="int" name="ISTART">     0</i>
  <i type="string" name="PREC">accurate      normal | accurate</i>
  <i type="string" name="ALGO">Normal     Normal, Fast, Very_Fast</i>
  <i type="logical" name="ADDGRID"> F  </i>
  <i type="int" name="ICHARG">     2</i>
  <i type="int" name="INIWAV">     1</i>
  <i type="int" name="NELM">   100</i>
  <i type="int" name="IBRION">     2</i>
  <i name="EDIFF">      0.00000100</i>
  <i name="EDIFFG">     -0.02000000</i>
  <i type="int" name="NSW">   100</i>
  <i type="int" name="ISIF">     2</i>
  <i type="int" name="ISYM">     1</i>
  <i name="ENCUT">    425.00000000</i>
  <i type="logical" name="LREAL"> F  </i>
  <i type="int" name="ISMEAR">     0</i>
  <i name="SIGMA">      0.05000000</i>
  <i type="int" name="NWRITE">     2</i>
  <i type="logical" name="LWAVE"> T  </i>
  <i type="logical" name="LCHARG"> T  </i>
  <i type="int" name="LORBIT">    11</i>
 </incar>
 <primitive_cell>
  <structure name="primitive_cell" >
   <crystal>
    <varray name="basis" >
     <v>       0.00000000       1.95661249       1.95661249 </v>
     <v>       1.95661249       0.00000000       1.95661249 </v>
     <v>       1.95661249       1.95661249       0.00000000 </v>
    </varray>
    <i name="volume">     14.98112619 </i>
    <varray name="rec_basis" >
     <v>      -0.25554370       0.25554370       0.25554370 </v>
     <v>       0.25554370      -0.25554370       0.25554370 </v>
     <v>       0.25554370       0.25554370      -0.25554370 </v>
    </varray>
   </crystal>
   <varray name="positions" >
    <v>       0.00000000       0.00000000       0.00000000 </v>
   </varray>
  </structure>
  <varray name="primitive_index" >
   <v type="int" >        1 </v>
  </varray>
 </primitive_cell>
 <kpoints>
  <generation param="Monkhorst-Pack">
   <v type="int" name="divisions">      10       10       10 </v>
   <v name="usershift">      0.00000000       0.00000000       0.00000000 </v>
   <v name="genvec1">      0.10000000      -0.00000000      -0.00000000 </v>
   <v name="genvec2">      0.00000000       0.10000000       0.00000000 </v>
   <v name="genvec3">      0.00000000       0.00000000       0.10000000 </v>
   <v name="shift">      0.50000000       0.50000000       0.50000000 </v>
  </generation>
  <varray name="kpointlist" >
   <v>       0.05000000       0.05000000       0.05000000 </v>
   <v>       0.15000000       0.05000000       0.05000000 </v>
   <v>       0.25000000       0.05000000       0.05000000 </v>
   <v>       0.35000000       0.05000000       0.05000000 </v>
   <v>       0.45000000       0.05000000       0.05000000 </v>
   <v>      -0.45000000       0.05000000       0.05000000 </v>
   <v>      -0.35000000       0.05000000       0.05000000 </v>
   <v>      -0.25000000       0.05000000       0.05000000 </v>
   <v>      -0.15000000       0.05000000       0.05000000 </v>
   <v>      -0.05000000       0.05000000       0.05000000 </v>
   <v>       0.15000000       0.15000000       0.05000000 </v>
   <v>       0.25000000       0.15000000       0.05000000 </v>
   <v>       0.35000000       0.15000000       0.05000000 </v>
   <v>       0.45000000       0.15000000       0.05000000 </v>
   <v>      -0.45000000       0.15000000       0.05000000 </v>
   <v>      -0.35000000       0.15000000       0.05000000 </v>
   <v>      -0.25000000       0.15000000       0.05000000 </v>
   <v>      -0.15000000       0.15000000       0.05000000 </v>
   <v>      -0.05000000       0.15000000       0.05000000 </v>
   <v>       0.25000000       0.25000000       0.05000000 </v>
   <v>       0.35000000       0.25000000       0.05000000 </v>
   <v>       0.45000000       0.25000000       0.05000000 </v>
   <v>      -0.45000000       0.25000000       0.05000000 </v>
   <v>      -0.35000000       0.25000000       0.05000000 </v>
   <v>      -0.25000000       0.25000000       0.05000000 </v>
   <v>      -0.15000000       0.25000000       0.05000000 </v>
   <v>      -0.05000000       0.25000000       0.05000000 </v>
   <v>       0.35000000       0.35000000       0.05000000 </v>
   <v>       0.45000000       0.35000000       0.05000000 </v>
   <v>      -0.45000000       0.35000000       0.05000000 </v>
   <v>      -0.35000000       0.35000000       0.05000000 </v>
   <v>      -0.25000000       0.35000000       0.05000000 </v>
   <v>      -0.15000000       0.35000000       0.05000000 </v>
   <v>      -0.05000000       0.35000000       0.05000000 </v>
   <v>       0.45000000       0.45000000       0.05000000 </v>
   <v>      -0.45000000       0.45000000       0.05000000 </v>
   <v>      -0.35000000       0.45000000       0.05000000 </v>
   <v>      -0.25000000       0.45000000       0.05000000 </v>
   <v>      -0.15000000       0.45000000       0.05000000 </v>
   <v>      -0.05000000       0.45000000       0.05000000 </v>
   <v>      -0.45000000      -0.45000000       0.05000000 </v>
   <v>      -0.35000000      -0.45000000       0.05000000 </v>
   <v>      -0.25000000      -0.45000000       0.05000000 </v>
   <v>      -0.15000000      -0.45000000       0.05000000 </v>
   <v>      -0.35000000      -0.35000000       0.05000000 </v>
   <v>      -0.25000000      -0.35000000       0.05000000 </v>
   <v>      -0.15000000      -0.35000000       0.05000000 </v>
   <v>      -0.25000000      -0.25000000       0.05000000 </v>
   <v>      -0.15000000      -0.25000000       0.05000000 </v>
   <v>      -0.15000000      -0.15000000       0.05000000 </v>
   <v>       0.15000000       0.15000000       0.15000000 </v>
   <v>       0.25000000       0.15000000       0.15000000 </v>
   <v>       0.35000000       0.15000000       0.15000000 </v>
   <v>       0.45000000       0.15000000       0.15000000 </v>
   <v>      -0.45000000       0.15000000       0.15000000 </v>
   <v>      -0.35000000       0.15000000       0.15000000 </v>
   <v>      -0.25000000       0.15000000       0.15000000 </v>
   <v>      -0.15000000       0.15000000       0.15000000 </v>
   <v>       0.25000000       0.25000000       0.15000000 </v>
   <v>       0.35000000       0.25000000       0.15000000 </v>
   <v>       0.45000000       0.25000000       0.15000000 </v>
   <v>      -0.45000000       0.25000000       0.15000000 </v>
   <v>      -0.35000000       0.25000000       0.15000000 </v>
   <v>      -0.25000000       0.25000000       0.15000000 </v>
   <v>      -0.15000000       0.25000000       0.15000000 </v>
   <v>       0.35000000       0.35000000       0.15000000 </v>
   <v>       0.45000000       0.35000000       0.15000000 </v>
   <v>      -0.45000000       0.35000000       0.15000000 </v>
   <v>      -0.35000000       0.35000000       0.15000000 </v>
   <v>      -0.25000000       0.35000000       0.15000000 </v>
   <v>      -0.15000000       0.35000000       0.15000000 </v>
   <v>       0.45000000       0.45000000       0.15000000 </v>
   <v>      -0.45000000       0.45000000       0.15000000 </v>
   <v>      -0.35000000       0.45000000       0.15000000 </v>
   <v>      -0.25000000       0.45000000       0.15000000 </v>
   <v>      -0.15000000       0.45000000       0.15000000 </v>
   <v>      -0.45000000      -0.45000000       0.15000000 </v>
   <v>      -0.35000000      -0.45000000       0.15000000 </v>
   <v>      -0.25000000      -0.45000000       0.15000000 </v>
   <v>      -0.35000000      -0.35000000       0.15000000 </v>
   <v>      -0.25000000      -0.35000000       0.15000000 </v>
   <v>      -0.25000000      -0.25000000       0.15000000 </v>
   <v>       0.25000000       0.25000000       0.25000000 </v>
   <v>       0.35000000       0.25000000       0.25000000 </v>
   <v>       0.45000000       0.25000000       0.25000000 </v>
   <v>      -0.45000000       0.25000000       0.25000000 </v>
   <v>      -0.35000000       0.25000000       0.25000000 </v>
   <v>      -0.25000000       0.25000000       0.25000000 </v>
   <v>       0.35000000       0.35000000       0.25000000 </v>
   <v>       0.45000000       0.35000000       0.25000000 </v>
   <v>      -0.45000000       0.35000000       0.25000000 </v>
   <v>      -0.35000000       0.35000000       0.25000000 </v>
   <v>      -0.25000000       0.35000000       0.25000000 </v>
   <v>       0.45000000       0.45000000       0.25000000 </v>
   <v>      -0.45000000       0.45000000       0.25000000 </v>
   <v>      -0.35000000       0.45000000       0.25000000 </v>
   <v>      -0.25000000       0.45000000       0.25000000 </v>
   <v>      -0.45000000      -0.45000000       0.25000000 </v>
   <v>      -0.35000000      -0.45000000       0.25000000 </v>
   <v>      -0.35000000      -0.35000000       0.25000000 </v>
   <v>       0.35000000       0.35000000       0.35000000 </v>
   <v>       0.45000000       0.35000000       0.35000000 </v>
   <v>      -0.45000000       0.35000000       0.35000000 </v>
   <v>      -0.35000000       0.35000000       0.35000000 </v>
   <v>       0.45000000       0.45000000       0.35000000 </v>
   <v>      -0.45000000       0.45000000       0.35000000 </v>
   <v>      -0.35000000       0.45000000       0.35000000 </v>
   <v>      -0.45000000      -0.45000000       0.35000000 </v>
   <v>       0.45000000       0.45000000       0.45000000 </v>
   <v>      -0.45000000       0.45000000       0.45000000 </v>
  </varray>
  <varray name="weights" >
   <v>       0.00200000 </v>
   <v>       0.00600000 </v>
   <v>       0.00600000 </v>
   <v>       0.00600000 </v>
   <v>       0.00600000 </v>
   <v>       0.00600000 </v>
   <v>       0.00600000 </v>
   <v>       0.00600000 </v>
   <v>       0.00600000 </v>
   <v>       0.00600000 </v>
   <v>       0.00600000 </v>
   <v>       0.01200000 </v>
   <v>       0.01200000 </v>
   <v>       0.01200000 </v>
   <v>       0.01200000 </v>
   <v>       0.01200000 </v>
   <v>       0.01200000 </v>
   <v>       0.01200000 </v>
   <v>       0.01200000 </v>
   <v>       0.00600000 </v>
   <v>       0.01200000 </v>
   <v>       0.01200000 </v>
   <v>       0.01200000 </v>
   <v>       0.01200000 </v>
   <v>       0.01200000 </v>
   <v>       0.01200000 </v>
   <v>       0.01200000 </v>
   <v>       0.00600000 </v>
   <v>       0.01200000 </v>
   <v>       0.01200000 </v>
   <v>       0.01200000 </v>
   <v>       0.01200000 </v>
   <v>       0.01200000 </v>
   <v>       0.01200000 </v>
   <v>       0.00600000 </v>
   <v>       0.01200000 </v>
   <v>       0.01200000 </v>
   <v>       0.01200000 </v>
   <v>       0.01200000 </v>
   <v>       0.01200000 </v>
   <v>       0.00600000 </v>
   <v>       0.01200000 </v>
   <v>       0.01200000 </v>
   <v>       0.01200000 </v>
   <v>       0.00600000 </v>
   <v>       0.01200000 </v>
   <v>       0.01200000 </v>
   <v>       0.00600000 </v>
   <v>       0.01200000 </v>
   <v>       0.00600000 </v>
   <v>       0.00200000 </v>
   <v>       0.00600000 </v>
   <v>       0.00600000 </v>
   <v>       0.00600000 </v>
   <v>       0.00600000 </v>
   <v>       0.00600000 </v>
   <v>       0.00600000 </v>
   <v>       0.00600000 </v>
   <v>       0.00600000 </v>
   <v>       0.01200000 </v>
   <v>       0.01200000 </v>
   <v>       0.01200000 </v>
   <v>       0.01200000 </v>
   <v>       0.01200000 </v>
   <v>       0.01200000 </v>
   <v>       0.00600000 </v>
   <v>       0.01200000 </v>
   <v>       0.01200000 </v>
   <v>       0.01200000 </v>
   <v>       0.01200000 </v>
   <v>       0.01200000 </v>
   <v>       0.00600000 </v>
   <v>       0.01200000 </v>
   <v>       0.01200000 </v>
   <v>       0.01200000 </v>
   <v>       0.01200000 </v>
   <v>       0.00600000 </v>
   <v>       0.01200000 </v>
   <v>       0.01200000 </v>
   <v>       0.00600000 </v>
   <v>       0.01200000 </v>
   <v>       0.00600000 </v>
   <v>       0.00200000 </v>
   <v>       0.00600000 </v>
   <v>       0.00600000 </v>
   <v>       0.00600000 </v>
   <v>       0.00600000 </v>
   <v>       0.00600000 </v>
   <v>       0.00600000 </v>
   <v>       0.01200000 </v>
   <v>       0.01200000 </v>
   <v>       0.01200000 </v>
   <v>       0.01200000 </v>
   <v>       0.00600000 </v>
   <v>       0.01200000 </v>
   <v>       0.01200000 </v>
   <v>       0.01200000 </v>
   <v>       0.00600000 </v>
   <v>       0.01200000 </v>
   <v>       0.00600000 </v>
   <v>       0.00200000 </v>
   <v>       0.00600000 </v>
   <v>       0.00600000 </v>
   <v>       0.00600000 </v>
   <v>       0.00600000 </v>
   <v>       0.01200000 </v>
   <v>       0.01200000 </v>
   <v>       0.00600000 </v>
   <v>       0.00200000 </v>
   <v>       0.00600000 </v>
  </varray>
 </kpoints>
 <parameters>
  <separator name="general" >
   <i type="string" name="SYSTEM">Pt-fcc</i>
   <i type="logical" name="LCOMPAT"> F  </i>
  </separator>
  <separator name="electronic" >
   <i type="string" name="PREC">accura</i>
   <i name="ENMAX">    425.00000000</i>
   <i name="ENAUG">    527.01400000</i>
   <i name="EDIFF">      0.00000100</i>
   <i type="int" name="IALGO">    38</i>
   <i type="int" name="IWAVPR">    11</i>
   <i type="int" name="NBANDS">    24</i>
   <i type="int" name="NBANDSLOW">    -1</i>
   <i type="int" name="NBANDSHIGH">    -1</i>
   <i name="NELECT">     16.00000000</i>
   <i type="int" name="TURBO">     0</i>
   <i type="int" name="IRESTART">     0</i>
   <i type="int" name="NREBOOT">     0</i>
   <i type="int" name="NMIN">     0</i>
   <i name="EREF">      0.00000000</i>
   <separator name="electronic smearing" >
    <i type="int" name="ISMEAR">     0</i>
    <i name="SIGMA">      0.05000000</i>
    <i name="KSPACING">      0.50000000</i>
    <i type="logical" name="KGAMMA"> T  </i>
    <i type="logical" name="KBLOWUP"> T  </i>
   </separator>
   <separator name="electronic projectors" >
    <i type="logical" name="LREAL"> F  </i>
    <v name="ROPT">      0.00000000</v>
    <i type="int" name="LMAXPAW">  -100</i>
    <i type="int" name="LMAXMIX">     2</i>
    <i type="logical" name="NLSPLINE"> F  </i>
   </separator>
   <separator name="electronic startup" >
    <i type="int" name="ISTART">     0</i>
    <i type="int" name="ICHARG">     2</i>
    <i type="int" name="INIWAV">     1</i>
   </separator>
   <separator name="electronic spin" >
    <i type="int" name="ISPIN">     1</i>
    <i type="logical" name="LNONCOLLINEAR"> F  </i>
    <v name="MAGMOM">      1.00000000</v>
    <i name="NUPDOWN">     -1.00000000</i>
    <i type="logical" name="LSORBIT"> F  </i>
    <v name="SAXIS">      0.00000000      0.00000000      1.00000000</v>
    <i type="logical" name="LSPIRAL"> F  </i>
    <v name="QSPIRAL">      0.00000000      0.00000000      0.00000000</v>
    <i type="logical" name="LZEROZ"> F  </i>
   </separator>
   <separator name="electronic exchange-correlation" >
    <i type="logical" name="LASPH"> F  </i>
    <i type="logical" name="LMETAGGA"> F  </i>
   </separator>
   <separator name="electronic convergence" >
    <i type="int" name="NELM">   100</i>
    <i type="int" name="NELMDL">    -5</i>
    <i type="int" name="NELMIN">     2</i>
    <i name="ENINI">    425.00000000</i>
    <separator name="electronic convergence detail" >
     <i type="logical" name="LDIAG"> T  </i>
     <i type="logical" name="LSUBROT"> F  </i>
     <i name="WEIMIN">      0.00100000</i>
     <i name="EBREAK">      0.00000001</i>
     <i name="DEPER">      0.30000000</i>
     <i type="int" name="NRMM">     4</i>
     <i name="TIME">      0.40000000</i>
    </separator>
   </separator>
   <separator name="electronic mixer" >
    <i name="AMIX">      0.40000000</i>
    <i name="BMIX">      1.00000000</i>
    <i name="AMIN">      0.10000000</i>
    <i name="AMIX_MAG">      1.60000000</i>
    <i name="BMIX_MAG">      1.00000000</i>
    <separator name="electronic mixer details" >
     <i type="int" name="IMIX">     4</i>
     <i type="logical" name="MIXFIRST"> F  </i>
     <i type="int" name="MAXMIX">   -45</i>
     <i name="WC">    100.00000000</i>
     <i type="int" name="INIMIX">     1</i>
     <i type="int" name="MIXPRE">     1</i>
     <i type="int" name="MREMOVE">     5</i>
    </separator>
   </separator>
   <separator name="electronic dipolcorrection" >
    <i type="logical" name="LDIPOL"> F  </i>
    <i type="logical" name="LMONO"> F  </i>
    <i type="int" name="IDIPOL">     0</i>
    <i name="EPSILON">      1.00000000</i>
    <v name="DIPOL">   -100.00000000   -100.00000000   -100.00000000</v>
    <i name="EFIELD">      0.00000000</i>
   </separator>
  </separator>
  <separator name="grids" >
   <i type="int" name="NGX">    20</i>
   <i type="int" name="NGY">    20</i>
   <i type="int" name="NGZ">    20</i>
   <i type="int" name="NGXF">    40</i>
   <i type="int" name="NGYF">    40</i>
   <i type="int" name="NGZF">    40</i>
   <i type="logical" name="ADDGRID"> F  </i>
  </separator>
  <separator name="ionic" >
   <i type="int" name="NSW">   100</i>
   <i type="int" name="IBRION">     2</i>
   <i type="int" name="MDALGO">     0</i>
   <i type="int" name="ISIF">     2</i>
   <i name="PSTRESS">      0.00000000</i>
   <i name="EDIFFG">     -0.02000000</i>
   <i type="int" name="NFREE">     1</i>
   <i name="POTIM">      0.50000000</i>
   <i name="SMASS">     -3.00000000</i>
   <i name="SCALEE">      1.00000000</i>
  </separator>
  <separator name="ionic md" >
   <i name="TEBEG">      0.00010000</i>
   <i name="TEEND">      0.00010000</i>
   <i type="int" name="NBLOCK">     1</i>
   <i type="int" name="KBLOCK">   100</i>
   <i type="int" name="NPACO">   256</i>
   <i name="APACO">     10.00000000</i>
  </separator>
  <separator name="symmetry" >
   <i type="int" name="ISYM">     1</i>
   <i name="SYMPREC">      0.00001000</i>
  </separator>
  <separator name="dos" >
   <i type="int" name="LORBIT">    11</i>
   <v name="RWIGS">     -1.00000000</v>
   <i type="int" name="NEDOS">   301</i>
   <i name="EMIN">     10.00000000</i>
   <i name="EMAX">    -10.00000000</i>
   <i name="EFERMI">      0.00000000</i>
  </separator>
  <separator name="writing" >
   <i type="int" name="NWRITE">     2</i>
   <i type="logical" name="LWAVE"> T  </i>
   <i type="logical" name="LDOWNSAMPLE"> F  </i>
   <i type="logical" name="LCHARG"> T  </i>
   <i type="logical" name="LPARD"> F  </i>
   <i type="logical" name="LVTOT"> F  </i>
   <i type="logical" name="LVHAR"> F  </i>
   <i type="logical" name="LELF"> F  </i>
   <i type="logical" name="LOPTICS"> F  </i>
   <v name="STM">      0.00000000      0.00000000      0.00000000      0.00000000      0.00000000      0.00000000      0.00000000</v>
  </separator>
  <separator name="performance" >
   <i type="int" name="NPAR">    24</i>
   <i type="int" name="NSIM">     4</i>
   <i type="int" name="NBLK">    -1</i>
   <i type="logical" name="LPLANE"> T  </i>
   <i type="logical" name="LSCALAPACK"> T  </i>
   <i type="logical" name="LSCAAWARE"> T  </i>
   <i type="logical" name="LSCALU"> F  </i>
   <i type="logical" name="LASYNC"> F  </i>
   <i type="logical" name="LORBITALREAL"> F  </i>
  </separator>
  <separator name="miscellaneous" >
   <i type="int" name="IDIOT">     3</i>
   <i type="int" name="PHON_NSTRUCT">    -1</i>
   <i type="logical" name="LMUSIC"> F  </i>
   <v name="POMASS">    195.08000000</v>
   <v name="DARWINR">      0.00000000</v>
   <v name="DARWINV">      1.00000000</v>
   <i type="logical" name="LCORR"> T  </i>
  </separator>
  <i type="logical" name="GGA_COMPAT"> T  </i>
  <i type="logical" name="LBERRY"> F  </i>
  <i type="int" name="ICORELEVEL">     0</i>
  <i type="logical" name="LDAU"> F  </i>
  <i type="int" name="I_CONSTRAINED_M">     0</i>
  <separator name="electronic exchange-correlation" >
   <i type="string" name="GGA">--</i>
   <i type="int" name="VOSKOWN">     0</i>
   <i type="logical" name="LHFCALC"> F  </i>
   <i type="string" name="PRECFOCK"></i>
   <i type="logical" name="LSYMGRAD"> F  </i>
   <i type="logical" name="LHFONE"> F  </i>
   <i type="logical" name="LRHFCALC"> F  </i>
   <i type="logical" name="LTHOMAS"> F  </i>
   <i type="logical" name="LMODELHF"> F  </i>
   <i type="logical" name="LFOCKACE"> F  </i>
   <i name="ENCUT4O">     -1.00000000</i>
   <i type="int" name="EXXOEP">     0</i>
   <i type="int" name="FOURORBIT">     0</i>
   <i name="AEXX">      0.00000000</i>
   <i name="HFALPHA">      0.00000000</i>
   <i name="MCALPHA">      0.00000000</i>
   <i name="ALDAX">      1.00000000</i>
   <i name="AGGAX">      1.00000000</i>
   <i name="ALDAC">      1.00000000</i>
   <i name="AGGAC">      1.00000000</i>
   <i type="int" name="NKREDX">     1</i>
   <i type="int" name="NKREDY">     1</i>
   <i type="int" name="NKREDZ">     1</i>
   <i type="logical" name="SHIFTRED"> F  </i>
   <i type="logical" name="ODDONLY"> F  </i>
   <i type="logical" name="EVENONLY"> F  </i>
   <i type="int" name="LMAXFOCK">     0</i>
   <i type="int" name="NMAXFOCKAE">     0</i>
   <i type="logical" name="LFOCKAEDFT"> F  </i>
   <i name="HFSCREEN">      0.00000000</i>
   <i name="HFSCREENC">      0.00000000</i>
   <i type="int" name="NBANDSGWLOW">     0</i>
  </separator>
  <separator name="vdW DFT" >
   <i type="logical" name="LUSE_VDW"> F  </i>
   <i name="Zab_VDW">     -0.84910000</i>
   <i name="PARAM1">      0.12340000</i>
   <i name="PARAM2">      1.00000000</i>
   <i name="PARAM3">      0.00000000</i>
  </separator>
  <separator name="model GW" >
   <i type="int" name="MODEL_GW">     0</i>
   <i name="MODEL_EPS0">      8.98867571</i>
   <i name="MODEL_ALPHA">      1.00000000</i>
  </separator>
  <separator name="linear response parameters" >
   <i type="logical" name="LEPSILON"> F  </i>
   <i type="logical" name="LRPA"> F  </i>
   <i type="logical" name="LNABLA"> F  </i>
   <i type="logical" name="LVEL"> F  </i>
   <i name="CSHIFT">      0.10000000</i>
   <i name="OMEGAMAX">     -1.00000000</i>
   <i name="DEG_THRESHOLD">      0.00200000</i>
   <i name="RTIME">     -0.10000000</i>
   <i name="WPLASMAI">      0.00000000</i>
   <v name="DFIELD">      0.00000000      0.00000000      0.00000000</v>
   <v name="WPLASMA">      0.00000000      0.00000000      0.00000000      0.00000000      0.00000000      0.00000000      0.00000000      0.00000000      0.00000000</v>
  </separator>
  <separator name="orbital magnetization" >
   <i type="logical" name="NUCIND"> F  </i>
   <v name="MAGPOS">      0.00000000      0.00000000      0.00000000</v>
   <i type="logical" name="LNICSALL"> T  </i>
   <i type="logical" name="ORBITALMAG"> F  </i>
   <i type="logical" name="LMAGBLOCH"> F  </i>
   <i type="logical" name="LCHIMAG"> F  </i>
   <i type="logical" name="LGAUGE"> T  </i>
   <i type="int" name="MAGATOM">     0</i>
   <v name="MAGDIPOL">      0.00000000      0.00000000      0.00000000</v>
   <v name="AVECCONST">      0.00000000      0.00000000      0.00000000</v>
  </separator>
  <separator name="response functions" >
   <i type="logical" name="LFINITE_TEMPERATURE"> F  </i>
   <i type="logical" name="LADDER"> F  </i>
   <i type="logical" name="LRPAFORCE"> F  </i>
   <i type="logical" name="LFXC"> F  </i>
   <i type="logical" name="LHARTREE"> T  </i>
   <i type="int" name="IBSE">     0</i>
   <v type="int" name="KPOINT">    -1     0     0     0</v>
   <i type="logical" name="LTCTC"> F  </i>
   <i type="logical" name="LTCTE"> F  </i>
   <i type="logical" name="LTETE"> F  </i>
   <i type="logical" name="LTRIPLET"> F  </i>
   <i type="logical" name="LFXCEPS"> F  </i>
   <i type="logical" name="LFXHEG"> F  </i>
   <i type="int" name="NATURALO">     2</i>
   <i type="logical" name="LHOLEGF"> F  </i>
   <i type="logical" name="L2ORDER"> F  </i>
   <i type="logical" name="LDMP1"> F  </i>
   <i type="logical" name="LMP2LT"> F  </i>
   <i type="logical" name="LSMP2LT"> F  </i>
   <i type="logical" name="LGWLF"> F  </i>
   <i name="ENCUTGW">     -2.00000000</i>
   <i name="ENCUTGWSOFT">     -2.00000000</i>
   <i name="ENCUTLF">     -1.00000000</i>
   <i type="logical" name="LESF_SPLINES"> F  </i>
   <i type="int" name="LMAXMP2">    -1</i>
   <i name="SCISSOR">      0.00000000</i>
   <i type="int" name="NOMEGA">     0</i>
   <i type="int" name="NOMEGAR">     0</i>
   <i type="int" name="NBANDSGW">    -1</i>
   <i type="int" name="NBANDSO">    -1</i>
   <i type="int" name="NBANDSV">    -1</i>
   <i type="int" name="NELMGW">     1</i>
   <i type="int" name="NELMHF">     1</i>
   <i type="int" name="DIM">     3</i>
   <i type="int" name="IESPILON">     4</i>
   <i type="int" name="ANTIRES">     0</i>
   <i name="OMEGAMAX">    -30.00000000</i>
   <i name="OMEGAMIN">    -30.00000000</i>
   <i name="OMEGATL">   -200.00000000</i>
   <i type="int" name="OMEGAGRID">     0</i>
   <i name="CSHIFT">     -0.10000000</i>
   <i type="logical" name="LSELFENERGY"> F  </i>
   <i type="logical" name="LSPECTRAL"> F  </i>
   <i type="logical" name="LSPECTRALGW"> F  </i>
   <i type="logical" name="LSINGLES"> F  </i>
   <i type="logical" name="LFERMIGW"> F  </i>
   <i type="logical" name="ODDONLYGW"> F  </i>
   <i type="logical" name="EVENONLYGW"> F  </i>
   <i type="int" name="NKREDLFX">     1</i>
   <i type="int" name="NKREDLFY">     1</i>
   <i type="int" name="NKREDLFZ">     1</i>
   <i type="int" name="MAXMEM">  2800</i>
   <i type="int" name="TELESCOPE">     0</i>
   <i type="int" name="NTAUPAR">    -1</i>
   <i type="int" name="NOMEGAPAR">    -1</i>
   <i name="DAMP_NEWTON">      0.80000001</i>
   <i name="LAMBDA">      1.00000000</i>
  </separator>
  <separator name="External order field" >
   <i name="OFIELD_KAPPA">      0.00000000</i>
   <v name="OFIELD_K">      0.00000000      0.00000000      0.00000000</v>
   <i name="OFIELD_Q6_NEAR">      0.00000000</i>
   <i name="OFIELD_Q6_FAR">      0.00000000</i>
   <i name="OFIELD_A">      0.00000000</i>
  </separator>
  <separator name="optional k-points parameters" >
   <i type="int" name="KPOINTS_OPT_MODE">     1</i>
   <i type="logical" name="LKPOINTS_OPT"> F  </i>
  </separator>
 </parameters>
 <atominfo>
  <atoms>       1 </atoms>
  <types>       1 </types>
  <array name="atoms" >
   <dimension dim="1">ion</dimension>
   <field type="string">element</field>
   <field type="int">atomtype</field>
   <set>
    <rc><c>Pt</c><c>   1</c></rc>
   </set>
  </array>
  <array name="atomtypes" >
   <dimension dim="1">type</dimension>
   <field type="int">atomspertype</field>
   <field type="string">element</field>
   <field>mass</field>
   <field>valence</field>
   <field type="string">pseudopotential</field>
   <set>
    <rc><c>   1</c><c>Pt</c><c>    195.08000000</c><c>     16.00000000</c><c>  PAW_PBE Pt_pv 12Dec2005               </c></rc>
   </set>
  </array>
 </atominfo>
 <structure name="initialpos" >
  <crystal>
   <varray name="basis" >
    <v>       0.00000000       1.95661249       1.95661249 </v>
    <v>       1.95661249       0.00000000       1.95661249 </v>
    <v>       1.95661249       1.95661249       0.00000000 </v>
   </varray>
   <i name="volume">     14.98112619 </i>
   <varray name="rec_basis" >
    <v>      -0.25554370       0.25554370       0.25554370 </v>
    <v>       0.25554370      -0.25554370       0.25554370 </v>
    <v>       0.25554370       0.25554370      -0.25554370 </v>
   </varray>
  </crystal>
  <varray name="positions" >
   <v>       0.00000000       0.00000000       0.00000000 </v>
  </varray>
 </structure>
 <calculation>
  <scstep>
   <time name="dav">    0.50    0.50</time>
   <time name="total">    0.50    0.51</time>
   <energy>
    <i name="alphaZ">    160.15608772 </i>
    <i name="ewald">  -2159.52134120 </i>
    <i name="hartreedc">   -391.08934707 </i>
    <i name="XCdc">     63.92226974 </i>
    <i name="pawpsdc">   2065.75261637 </i>
    <i name="pawaedc">  -2030.83594803 </i>
    <i name="eentropy">     -0.00155363 </i>
    <i name="bandstr">   -120.82931222 </i>
    <i name="atom">   2428.19501064 </i>
    <i name="e_fr_energy">     15.74848232 </i>
    <i name="e_wo_entrp">     15.75003596 </i>
    <i name="e_0_energy">     15.74925914 </i>
   </energy>
  </scstep>
  <scstep>
   <time name="dav">    0.63    0.64</time>
   <time name="total">    0.63    0.64</time>
   <energy>
    <i name="e_fr_energy">     -6.37630177 </i>
    <i name="e_wo_entrp">     -6.37462006 </i>
    <i name="e_0_energy">     -6.37546092 </i>
   </energy>
  </scstep>
  <scstep>
   <time name="dav">    0.69    0.70</time>
   <time name="total">    0.69    0.70</time>
   <energy>
    <i name="e_fr_energy">     -6.40732927 </i>
    <i name="e_wo_entrp">     -6.40564391 </i>
    <i name="e_0_energy">     -6.40648659 </i>
   </energy>
  </scstep>
  <scstep>
   <time name="dav">    0.93    0.94</time>
   <time name="total">    0.93    0.94</time>
   <energy>
    <i name="e_fr_energy">     -6.40735763 </i>
    <i name="e_wo_entrp">     -6.40567227 </i>
    <i name="e_0_energy">     -6.40651495 </i>
   </energy>
  </scstep>
  <scstep>
   <time name="dav">    0.65    0.65</time>
   <time name="total">    0.67    0.67</time>
   <energy>
    <i name="e_fr_energy">     -6.40735764 </i>
    <i name="e_wo_entrp">     -6.40567227 </i>
    <i name="e_0_energy">     -6.40651495 </i>
   </energy>
  </scstep>
  <scstep>
   <time name="dav">    0.52    0.52</time>
   <time name="total">    0.54    0.54</time>
   <energy>
    <i name="e_fr_energy">     -6.07871156 </i>
    <i name="e_wo_entrp">     -6.07641186 </i>
    <i name="e_0_energy">     -6.07756171 </i>
   </energy>
  </scstep>
  <scstep>
   <time name="dav">    0.80    0.80</time>
   <time name="total">    0.82    0.83</time>
   <energy>
    <i name="e_fr_energy">     -6.05885225 </i>
    <i name="e_wo_entrp">     -6.05648707 </i>
    <i name="e_0_energy">     -6.05766966 </i>
   </energy>
  </scstep>
  <scstep>
   <time name="dav">    0.47    0.47</time>
   <time name="total">    0.49    0.49</time>
   <energy>
    <i name="e_fr_energy">     -6.05725312 </i>
    <i name="e_wo_entrp">     -6.05486295 </i>
    <i name="e_0_energy">     -6.05605804 </i>
   </energy>
  </scstep>
  <scstep>
   <time name="dav">    0.77    0.78</time>
   <time name="total">    0.80    0.80</time>
   <energy>
    <i name="e_fr_energy">     -6.05717605 </i>
    <i name="e_wo_entrp">     -6.05478981 </i>
    <i name="e_0_energy">     -6.05598293 </i>
   </energy>
  </scstep>
  <scstep>
   <time name="dav">    0.73    0.74</time>
   <time name="total">    0.75    0.76</time>
   <energy>
    <i name="e_fr_energy">     -6.05718131 </i>
    <i name="e_wo_entrp">     -6.05479622 </i>
    <i name="e_0_energy">     -6.05598876 </i>
   </energy>
  </scstep>
  <scstep>
   <time name="dav">    0.29    0.29</time>
   <time name="total">    0.29    0.30</time>
   <energy>
    <i name="alphaZ">    160.15608772 </i>
    <i name="ewald">  -2159.52134120 </i>
    <i name="hartreedc">   -371.92114021 </i>
    <i name="XCdc">     63.07195979 </i>
    <i name="pawpsdc">   2383.09862512 </i>
    <i name="pawaedc">  -2350.91938867 </i>
    <i name="eentropy">     -0.00238509 </i>
    <i name="bandstr">   -158.21460935 </i>
    <i name="atom">   2428.19501064 </i>
    <i name="e_fr_energy">     -6.05718125 </i>
    <i name="e_wo_entrp">     -6.05479616 </i>
    <i name="e_0_energy">     -6.05598870 </i>
   </energy>
  </scstep>
  <structure>
   <crystal>
    <varray name="basis" >
     <v>       0.00000000       1.95661249       1.95661249 </v>
     <v>       1.95661249       0.00000000       1.95661249 </v>
     <v>       1.95661249       1.95661249       0.00000000 </v>
    </varray>
    <i name="volume">     14.98112619 </i>
    <varray name="rec_basis" >
     <v>      -0.25554370       0.25554370       0.25554370 </v>
     <v>       0.25554370      -0.25554370       0.25554370 </v>
     <v>       0.25554370       0.25554370      -0.25554370 </v>
    </varray>
   </crystal>
   <varray name="positions" >
    <v>       0.00000000       0.00000000       0.00000000 </v>
   </varray>
  </structure>
  <varray name="forces" >
   <v>       0.00000000       0.00000000       0.00000000 </v>
  </varray>
  <varray name="stress" >
   <v>      96.64252855       0.00000000       0.00000000 </v>
   <v>      -0.00000000      96.64252855       0.00000000 </v>
   <v>       0.00000000      -0.00000000      96.64252855 </v>
  </varray>
  <energy>
   <i name="e_fr_energy">     -6.05718125 </i>
   <i name="e_wo_entrp">     -6.05479616 </i>
   <i name="e_0_energy">     -6.05598870 </i>
  </energy>
  <time name="totalsc">    7.37    7.57</time>
  <eigenvalues>
   <array>
    <dimension dim="1">band</dimension>
    <dimension dim="2">kpoint</dimension>
    <dimension dim="3">spin</dimension>
    <field>eigene</field>
    <field>occ</field>
    <set>
     <set comment="spin 1">
      <set comment="kpoint 1">
       <r>  -40.3700    1.0000 </r>
       <r>  -40.3594    1.0000 </r>
       <r>  -40.3594    1.0000 </r>
       <r>    1.9738    1.0000 </r>
       <r>    8.3102    1.0000 </r>
       <r>    8.3981    1.0000 </r>
       <r>    8.3981    1.0000 </r>
       <r>   10.5251    1.0000 </r>
       <r>   10.5251    1.0000 </r>
       <r>   26.9483    0.0000 </r>
       <r>   31.2383    0.0000 </r>
       <r>   31.9474    0.0000 </r>
       <r>   31.9474    0.0000 </r>
       <r>   37.7959    0.0000 </r>
       <r>   42.8916    0.0000 </r>
       <r>   43.6392    0.0000 </r>
       <r>   43.6392    0.0000 </r>
       <r>   47.0006    0.0000 </r>
       <r>   47.0006    0.0000 </r>
       <r>   47.9350    0.0000 </r>
       <r>   52.8477    0.0000 </r>
       <r>   53.7204    0.0000 </r>
       <r>   53.7204    0.0000 </r>
       <r>   61.0938    0.0000 </r>
      </set>
      <set comment="kpoint 2">
       <r>  -40.4277    1.0000 </r>
       <r>  -40.3764    1.0000 </r>
       <r>  -40.3648    1.0000 </r>
       <r>    2.5008    1.0000 </r>
       <r>    8.0738    1.0000 </r>
       <r>    8.5820    1.0000 </r>
       <r>    8.6218    1.0000 </r>
       <r>   10.2936    1.0000 </r>
       <r>   10.5829    1.0000 </r>
       <r>   27.7170    0.0000 </r>
       <r>   29.5307    0.0000 </r>
       <r>   32.0910    0.0000 </r>
       <r>   33.0847    0.0000 </r>
       <r>   38.4860    0.0000 </r>
       <r>   40.9150    0.0000 </r>
       <r>   41.3055    0.0000 </r>
       <r>   42.6798    0.0000 </r>
       <r>   45.2909    0.0000 </r>
       <r>   48.4253    0.0000 </r>
       <r>   50.7085    0.0000 </r>
       <r>   52.5078    0.0000 </r>
       <r>   52.8386    0.0000 </r>
       <r>   54.8942    0.0000 </r>
       <r>   61.7028    0.0000 </r>
      </set>
      <set comment="kpoint 3">
       <r>  -40.5549    1.0000 </r>
       <r>  -40.3995    1.0000 </r>
       <r>  -40.3818    1.0000 </r>
       <r>    3.6249    1.0000 </r>
       <r>    7.8475    1.0000 </r>
       <r>    8.7736    1.0000 </r>
       <r>    8.8134    1.0000 </r>
       <r>   10.2770    1.0000 </r>
       <r>   10.8523    1.0000 </r>
       <r>   26.6648    0.0000 </r>
       <r>   28.7158    0.0000 </r>
       <r>   33.2375    0.0000 </r>
       <r>   35.1986    0.0000 </r>
       <r>   35.2135    0.0000 </r>
       <r>   38.5581    0.0000 </r>
       <r>   38.6664    0.0000 </r>
       <r>   45.2085    0.0000 </r>
       <r>   45.7045    0.0000 </r>
       <r>   49.0317    0.0000 </r>
       <r>   51.0603    0.0000 </r>
       <r>   52.8328    0.0000 </r>
       <r>   53.7502    0.0000 </r>
       <r>   55.5270    0.0000 </r>
       <r>   62.0148    0.0000 </r>
      </set>
      <set comment="kpoint 4">
       <r>  -40.6996    1.0000 </r>
       <r>  -40.4212    1.0000 </r>
       <r>  -40.4034    1.0000 </r>
       <r>    4.6146    1.0000 </r>
       <r>    8.4314    1.0000 </r>
       <r>    8.6181    1.0000 </r>
       <r>    8.6513    1.0000 </r>
       <r>   10.9525    1.0000 </r>
       <r>   11.6151    1.0000 </r>
       <r>   23.2194    0.0000 </r>
       <r>   27.9197    0.0000 </r>
       <r>   32.6513    0.0000 </r>
       <r>   34.8879    0.0000 </r>
       <r>   36.0397    0.0000 </r>
       <r>   37.9097    0.0000 </r>
       <r>   38.4694    0.0000 </r>
       <r>   46.1205    0.0000 </r>
       <r>   48.3693    0.0000 </r>
       <r>   50.4763    0.0000 </r>
       <r>   51.6442    0.0000 </r>
       <r>   52.8403    0.0000 </r>
       <r>   54.3893    0.0000 </r>
       <r>   56.2178    0.0000 </r>
       <r>   61.0155    0.0000 </r>
      </set>
      <set comment="kpoint 5">
       <r>  -40.8059    1.0000 </r>
       <r>  -40.4351    1.0000 </r>
       <r>  -40.4220    1.0000 </r>
       <r>    4.8594    1.0000 </r>
       <r>    8.3183    1.0000 </r>
       <r>    8.4200    1.0000 </r>
       <r>   10.2265    1.0000 </r>
       <r>   11.8203    1.0000 </r>
       <r>   12.5130    0.0000 </r>
       <r>   19.6164    0.0000 </r>
       <r>   26.8164    0.0000 </r>
       <r>   31.1484    0.0000 </r>
       <r>   32.1847    0.0000 </r>
       <r>   39.0225    0.0000 </r>
       <r>   40.1168    0.0000 </r>
       <r>   40.6863    0.0000 </r>
       <r>   46.7475    0.0000 </r>
       <r>   48.1562    0.0000 </r>
       <r>   49.4476    0.0000 </r>
       <r>   52.8464    0.0000 </r>
       <r>   53.9465    0.0000 </r>
       <r>   56.7520    0.0000 </r>
       <r>   56.9310    0.0000 </r>
       <r>   58.1096    0.0000 </r>
      </set>
      <set comment="kpoint 6">
       <r>  -40.8355    1.0000 </r>
       <r>  -40.4350    1.0000 </r>
       <r>  -40.4307    1.0000 </r>
       <r>    4.8621    1.0000 </r>
       <r>    8.2264    1.0000 </r>
       <r>    8.3666    1.0000 </r>
       <r>   10.9608    1.0000 </r>
       <r>   12.2478    0.2087 </r>
       <r>   12.9449    0.0000 </r>
       <r>   18.1206    0.0000 </r>
       <r>   26.5227    0.0000 </r>
       <r>   31.0325    0.0000 </r>
       <r>   31.0768    0.0000 </r>
       <r>   40.3499    0.0000 </r>
       <r>   40.5767    0.0000 </r>
       <r>   42.0724    0.0000 </r>
       <r>   46.9910    0.0000 </r>
       <r>   47.8470    0.0000 </r>
       <r>   48.0886    0.0000 </r>
       <r>   52.8513    0.0000 </r>
       <r>   55.0465    0.0000 </r>
       <r>   55.6557    0.0000 </r>
       <r>   57.7289    0.0000 </r>
       <r>   58.5461    0.0000 </r>
      </set>
      <set comment="kpoint 7">
       <r>  -40.7779    1.0000 </r>
       <r>  -40.4261    1.0000 </r>
       <r>  -40.4223    1.0000 </r>
       <r>    4.8311    1.0000 </r>
       <r>    8.3599    1.0000 </r>
       <r>    8.5178    1.0000 </r>
       <r>    9.5638    1.0000 </r>
       <r>   11.8767    1.0000 </r>
       <r>   11.9462    1.0000 </r>
       <r>   20.7408    0.0000 </r>
       <r>   27.1090    0.0000 </r>
       <r>   31.7750    0.0000 </r>
       <r>   32.6226    0.0000 </r>
       <r>   38.7381    0.0000 </r>
       <r>   38.9112    0.0000 </r>
       <r>   39.8704    0.0000 </r>
       <r>   46.0170    0.0000 </r>
       <r>   49.1805    0.0000 </r>
       <r>   49.8483    0.0000 </r>
       <r>   52.8441    0.0000 </r>
       <r>   53.8285    0.0000 </r>
       <r>   55.0107    0.0000 </r>
       <r>   56.9068    0.0000 </r>
       <r>   58.8138    0.0000 </r>
      </set>
      <set comment="kpoint 8">
       <r>  -40.6531    1.0000 </r>
       <r>  -40.4095    1.0000 </r>
       <r>  -40.4007    1.0000 </r>
       <r>    4.3645    1.0000 </r>
       <r>    8.0821    1.0000 </r>
       <r>    8.6528    1.0000 </r>
       <r>    8.7571    1.0000 </r>
       <r>   10.7972    1.0000 </r>
       <r>   11.2195    1.0000 </r>
       <r>   24.4367    0.0000 </r>
       <r>   28.3631    0.0000 </r>
       <r>   33.3887    0.0000 </r>
       <r>   34.7308    0.0000 </r>
       <r>   36.4003    0.0000 </r>
       <r>   37.1425    0.0000 </r>
       <r>   37.8584    0.0000 </r>
       <r>   45.6514    0.0000 </r>
       <r>   48.6447    0.0000 </r>
       <r>   49.3870    0.0000 </r>
       <r>   51.7472    0.0000 </r>
       <r>   52.8420    0.0000 </r>
       <r>   53.1302    0.0000 </r>
       <r>   56.5796    0.0000 </r>
       <r>   62.0748    0.0000 </r>
      </set>
      <set comment="kpoint 9">
       <r>  -40.5072    1.0000 </r>
       <r>  -40.3876    1.0000 </r>
       <r>  -40.3793    1.0000 </r>
       <r>    3.2144    1.0000 </r>
       <r>    7.8623    1.0000 </r>
       <r>    8.7672    1.0000 </r>
       <r>    8.7902    1.0000 </r>
       <r>   10.2188    1.0000 </r>
       <r>   10.6945    1.0000 </r>
       <r>   27.7029    0.0000 </r>
       <r>   28.5213    0.0000 </r>
       <r>   33.0075    0.0000 </r>
       <r>   33.9397    0.0000 </r>
       <r>   36.6260    0.0000 </r>
       <r>   38.6885    0.0000 </r>
       <r>   40.2230    0.0000 </r>
       <r>   43.7474    0.0000 </r>
       <r>   45.4785    0.0000 </r>
       <r>   49.3449    0.0000 </r>
       <r>   51.1100    0.0000 </r>
       <r>   52.4936    0.0000 </r>
       <r>   52.8374    0.0000 </r>
       <r>   55.7209    0.0000 </r>
       <r>   61.9380    0.0000 </r>
      </set>
      <set comment="kpoint 10">
       <r>  -40.3963    1.0000 </r>
       <r>  -40.3684    1.0000 </r>
       <r>  -40.3658    1.0000 </r>
       <r>    2.2424    1.0000 </r>
       <r>    8.1498    1.0000 </r>
       <r>    8.5228    1.0000 </r>
       <r>    8.5310    1.0000 </r>
       <r>   10.3332    1.0000 </r>
       <r>   10.6034    1.0000 </r>
       <r>   27.3593    0.0000 </r>
       <r>   30.4741    0.0000 </r>
       <r>   31.9951    0.0000 </r>
       <r>   32.2493    0.0000 </r>
       <r>   39.0257    0.0000 </r>
       <r>   41.3179    0.0000 </r>
       <r>   41.6309    0.0000 </r>
       <r>   43.7053    0.0000 </r>
       <r>   44.9640    0.0000 </r>
       <r>   48.9896    0.0000 </r>
       <r>   49.4746    0.0000 </r>
       <r>   52.3797    0.0000 </r>
       <r>   52.8374    0.0000 </r>
       <r>   54.7810    0.0000 </r>
       <r>   61.5648    0.0000 </r>
      </set>
      <set comment="kpoint 11">
       <r>  -40.4402    1.0000 </r>
       <r>  -40.3851    1.0000 </r>
       <r>  -40.3817    1.0000 </r>
       <r>    2.7616    1.0000 </r>
       <r>    7.8368    1.0000 </r>
       <r>    8.7873    1.0000 </r>
       <r>    8.7942    1.0000 </r>
       <r>    9.9977    1.0000 </r>
       <r>   10.7552    1.0000 </r>
       <r>   28.1332    0.0000 </r>
       <r>   29.7684    0.0000 </r>
       <r>   31.9286    0.0000 </r>
       <r>   32.2988    0.0000 </r>
       <r>   38.9680    0.0000 </r>
       <r>   39.8166    0.0000 </r>
       <r>   41.7741    0.0000 </r>
       <r>   41.8704    0.0000 </r>
       <r>   44.3161    0.0000 </r>
       <r>   50.0980    0.0000 </r>
       <r>   51.1108    0.0000 </r>
       <r>   51.3014    0.0000 </r>
       <r>   52.8367    0.0000 </r>
       <r>   55.6081    0.0000 </r>
       <r>   62.7264    0.0000 </r>
      </set>
      <set comment="kpoint 12">
       <r>  -40.5288    1.0000 </r>
       <r>  -40.4174    1.0000 </r>
       <r>  -40.3943    1.0000 </r>
       <r>    3.6977    1.0000 </r>
       <r>    7.4754    1.0000 </r>
       <r>    8.9019    1.0000 </r>
       <r>    9.1656    1.0000 </r>
       <r>    9.8866    1.0000 </r>
       <r>   11.0456    1.0000 </r>
       <r>   28.0145    0.0000 </r>
       <r>   29.1874    0.0000 </r>
       <r>   31.5609    0.0000 </r>
       <r>   32.8667    0.0000 </r>
       <r>   36.5479    0.0000 </r>
       <r>   38.9001    0.0000 </r>
       <r>   40.0064    0.0000 </r>
       <r>   43.6800    0.0000 </r>
       <r>   45.3153    0.0000 </r>
       <r>   49.0467    0.0000 </r>
       <r>   50.5036    0.0000 </r>
       <r>   52.8401    0.0000 </r>
       <r>   53.9995    0.0000 </r>
       <r>   56.9981    0.0000 </r>
       <r>   62.5292    0.0000 </r>
      </set>
      <set comment="kpoint 13">
       <r>  -40.6559    1.0000 </r>
       <r>  -40.4460    1.0000 </r>
       <r>  -40.4156    1.0000 </r>
       <r>    4.8388    1.0000 </r>
       <r>    7.5181    1.0000 </r>
       <r>    8.4667    1.0000 </r>
       <r>    9.1752    1.0000 </r>
       <r>   10.7537    1.0000 </r>
       <r>   11.7931    1.0000 </r>
       <r>   24.7126    0.0000 </r>
       <r>   28.8461    0.0000 </r>
       <r>   30.9244    0.0000 </r>
       <r>   33.0319    0.0000 </r>
       <r>   37.1423    0.0000 </r>
       <r>   38.0000    0.0000 </r>
       <r>   39.9778    0.0000 </r>
       <r>   42.9988    0.0000 </r>
       <r>   48.6545    0.0000 </r>
       <r>   50.3171    0.0000 </r>
       <r>   50.6899    0.0000 </r>
       <r>   52.8417    0.0000 </r>
       <r>   54.1845    0.0000 </r>
       <r>   58.5722    0.0000 </r>
       <r>   60.4323    0.0000 </r>
      </set>
      <set comment="kpoint 14">
       <r>  -40.7648    1.0000 </r>
       <r>  -40.4677    1.0000 </r>
       <r>  -40.4371    1.0000 </r>
       <r>    5.2897    1.0000 </r>
       <r>    8.0361    1.0000 </r>
       <r>    8.6056    1.0000 </r>
       <r>    8.9564    1.0000 </r>
       <r>   11.8666    1.0000 </r>
       <r>   13.0251    0.0000 </r>
       <r>   20.8280    0.0000 </r>
       <r>   27.7224    0.0000 </r>
       <r>   29.8676    0.0000 </r>
       <r>   32.0891    0.0000 </r>
       <r>   38.0700    0.0000 </r>
       <r>   40.3347    0.0000 </r>
       <r>   41.3326    0.0000 </r>
       <r>   43.3086    0.0000 </r>
       <r>   49.9571    0.0000 </r>
       <r>   50.2702    0.0000 </r>
       <r>   51.9108    0.0000 </r>
       <r>   52.8434    0.0000 </r>
       <r>   55.7040    0.0000 </r>
       <r>   57.1607    0.0000 </r>
       <r>   58.8292    0.0000 </r>
      </set>
      <set comment="kpoint 15">
       <r>  -40.8140    1.0000 </r>
       <r>  -40.4814    1.0000 </r>
       <r>  -40.4441    1.0000 </r>
       <r>    5.3184    1.0000 </r>
       <r>    7.8644    1.0000 </r>
       <r>    8.7627    1.0000 </r>
       <r>    9.6846    1.0000 </r>
       <r>   12.1710    0.9133 </r>
       <r>   14.6624    0.0000 </r>
       <r>   17.9716    0.0000 </r>
       <r>   27.1985    0.0000 </r>
       <r>   29.5429    0.0000 </r>
       <r>   30.7561    0.0000 </r>
       <r>   39.6636    0.0000 </r>
       <r>   40.4721    0.0000 </r>
       <r>   43.2799    0.0000 </r>
       <r>   45.5755    0.0000 </r>
       <r>   47.9021    0.0000 </r>
       <r>   49.5894    0.0000 </r>
       <r>   52.6441    0.0000 </r>
       <r>   52.8465    0.0000 </r>
       <r>   54.0491    0.0000 </r>
       <r>   57.9803    0.0000 </r>
       <r>   59.7996    0.0000 </r>
      </set>
      <set comment="kpoint 16">
       <r>  -40.7872    1.0000 </r>
       <r>  -40.4833    1.0000 </r>
       <r>  -40.4325    1.0000 </r>
       <r>    5.3390    1.0000 </r>
       <r>    7.9814    1.0000 </r>
       <r>    8.7917    1.0000 </r>
       <r>    9.2221    1.0000 </r>
       <r>   11.6786    1.0000 </r>
       <r>   13.7917    0.0000 </r>
       <r>   19.7275    0.0000 </r>
       <r>   27.4054    0.0000 </r>
       <r>   29.3352    0.0000 </r>
       <r>   32.0944    0.0000 </r>
       <r>   37.9971    0.0000 </r>
       <r>   40.4651    0.0000 </r>
       <r>   42.4913    0.0000 </r>
       <r>   45.0979    0.0000 </r>
       <r>   48.9110    0.0000 </r>
       <r>   50.1530    0.0000 </r>
       <r>   51.1255    0.0000 </r>
       <r>   52.8442    0.0000 </r>
       <r>   55.6865    0.0000 </r>
       <r>   57.9344    0.0000 </r>
       <r>   58.8346    0.0000 </r>
      </set>
      <set comment="kpoint 17">
       <r>  -40.6945    1.0000 </r>
       <r>  -40.4681    1.0000 </r>
       <r>  -40.4102    1.0000 </r>
       <r>    5.1212    1.0000 </r>
       <r>    7.8676    1.0000 </r>
       <r>    8.3552    1.0000 </r>
       <r>    9.0519    1.0000 </r>
       <r>   10.6741    1.0000 </r>
       <r>   12.4559    0.0000 </r>
       <r>   23.4456    0.0000 </r>
       <r>   28.2436    0.0000 </r>
       <r>   30.2539    0.0000 </r>
       <r>   33.9827    0.0000 </r>
       <r>   35.9549    0.0000 </r>
       <r>   39.3118    0.0000 </r>
       <r>   41.0262    0.0000 </r>
       <r>   43.1400    0.0000 </r>
       <r>   48.5968    0.0000 </r>
       <r>   49.0978    0.0000 </r>
       <r>   52.7997    0.0000 </r>
       <r>   52.8441    0.0000 </r>
       <r>   54.9018    0.0000 </r>
       <r>   58.1345    0.0000 </r>
       <r>   59.3463    0.0000 </r>
      </set>
      <set comment="kpoint 18">
       <r>  -40.5726    1.0000 </r>
       <r>  -40.4362    1.0000 </r>
       <r>  -40.3876    1.0000 </r>
       <r>    4.1024    1.0000 </r>
       <r>    7.5192    1.0000 </r>
       <r>    8.7437    1.0000 </r>
       <r>    9.1983    1.0000 </r>
       <r>    9.8904    1.0000 </r>
       <r>   11.3749    1.0000 </r>
       <r>   26.8203    0.0000 </r>
       <r>   29.0364    0.0000 </r>
       <r>   31.7345    0.0000 </r>
       <r>   32.8433    0.0000 </r>
       <r>   36.5115    0.0000 </r>
       <r>   39.3277    0.0000 </r>
       <r>   40.2893    0.0000 </r>
       <r>   42.6472    0.0000 </r>
       <r>   46.2890    0.0000 </r>
       <r>   48.6254    0.0000 </r>
       <r>   50.3983    0.0000 </r>
       <r>   52.8382    0.0000 </r>
       <r>   55.8663    0.0000 </r>
       <r>   57.2601    0.0000 </r>
       <r>   61.4057    0.0000 </r>
      </set>
      <set comment="kpoint 19">
       <r>  -40.4735    1.0000 </r>
       <r>  -40.3939    1.0000 </r>
       <r>  -40.3745    1.0000 </r>
       <r>    3.0001    1.0000 </r>
       <r>    7.8309    1.0000 </r>
       <r>    8.7861    1.0000 </r>
       <r>    8.8066    1.0000 </r>
       <r>   10.0546    1.0000 </r>
       <r>   10.7544    1.0000 </r>
       <r>   28.3680    0.0000 </r>
       <r>   28.6938    0.0000 </r>
       <r>   32.0025    0.0000 </r>
       <r>   33.6009    0.0000 </r>
       <r>   37.0306    0.0000 </r>
       <r>   39.8126    0.0000 </r>
       <r>   41.8290    0.0000 </r>
       <r>   42.8761    0.0000 </r>
       <r>   43.8913    0.0000 </r>
       <r>   49.3382    0.0000 </r>
       <r>   50.8568    0.0000 </r>
       <r>   52.7104    0.0000 </r>
       <r>   52.8378    0.0000 </r>
       <r>   55.9576    0.0000 </r>
       <r>   62.2655    0.0000 </r>
      </set>
      <set comment="kpoint 20">
       <r>  -40.5644    1.0000 </r>
       <r>  -40.4355    1.0000 </r>
       <r>  -40.4347    1.0000 </r>
       <r>    4.3135    1.0000 </r>
       <r>    6.9906    1.0000 </r>
       <r>    9.0590    1.0000 </r>
       <r>    9.6784    1.0000 </r>
       <r>    9.9136    1.0000 </r>
       <r>   11.2303    1.0000 </r>
       <r>   28.7722    0.0000 </r>
       <r>   30.2330    0.0000 </r>
       <r>   30.2435    0.0000 </r>
       <r>   31.0469    0.0000 </r>
       <r>   35.0301    0.0000 </r>
       <r>   38.8286    0.0000 </r>
       <r>   39.0570    0.0000 </r>
       <r>   45.2592    0.0000 </r>
       <r>   46.4462    0.0000 </r>
       <r>   47.5781    0.0000 </r>
       <r>   52.8258    0.0000 </r>
       <r>   53.1411    0.0000 </r>
       <r>   53.8956    0.0000 </r>
       <r>   55.6828    0.0000 </r>
       <r>   65.1911    0.0000 </r>
      </set>
      <set comment="kpoint 21">
       <r>  -40.6497    1.0000 </r>
       <r>  -40.4754    1.0000 </r>
       <r>  -40.4532    1.0000 </r>
       <r>    5.2142    1.0000 </r>
       <r>    6.6788    1.0000 </r>
       <r>    8.6602    1.0000 </r>
       <r>   10.1482    1.0000 </r>
       <r>   10.7706    1.0000 </r>
       <r>   11.8371    1.0000 </r>
       <r>   26.3802    0.0000 </r>
       <r>   28.4034    0.0000 </r>
       <r>   29.5670    0.0000 </r>
       <r>   32.1152    0.0000 </r>
       <r>   34.4112    0.0000 </r>
       <r>   39.0718    0.0000 </r>
       <r>   40.3382    0.0000 </r>
       <r>   45.0924    0.0000 </r>
       <r>   45.6991    0.0000 </r>
       <r>   50.1017    0.0000 </r>
       <r>   52.8322    0.0000 </r>
       <r>   53.1466    0.0000 </r>
       <r>   55.0370    0.0000 </r>
       <r>   56.4633    0.0000 </r>
       <r>   63.2148    0.0000 </r>
      </set>
      <set comment="kpoint 22">
       <r>  -40.7305    1.0000 </r>
       <r>  -40.5146    1.0000 </r>
       <r>  -40.4727    1.0000 </r>
       <r>    5.7837    1.0000 </r>
       <r>    6.9636    1.0000 </r>
       <r>    8.2999    1.0000 </r>
       <r>    9.9624    1.0000 </r>
       <r>   12.0058    1.0000 </r>
       <r>   13.3369    0.0000 </r>
       <r>   22.2473    0.0000 </r>
       <r>   27.6884    0.0000 </r>
       <r>   27.9566    0.0000 </r>
       <r>   31.8926    0.0000 </r>
       <r>   36.9844    0.0000 </r>
       <r>   39.6240    0.0000 </r>
       <r>   41.6213    0.0000 </r>
       <r>   44.5123    0.0000 </r>
       <r>   47.1331    0.0000 </r>
       <r>   50.2138    0.0000 </r>
       <r>   52.8385    0.0000 </r>
       <r>   53.1967    0.0000 </r>
       <r>   56.5763    0.0000 </r>
       <r>   57.1487    0.0000 </r>
       <r>   60.7125    0.0000 </r>
      </set>
      <set comment="kpoint 23">
       <r>  -40.7698    1.0000 </r>
       <r>  -40.5547    1.0000 </r>
       <r>  -40.4752    1.0000 </r>
       <r>    5.9561    1.0000 </r>
       <r>    7.3061    1.0000 </r>
       <r>    8.5275    1.0000 </r>
       <r>    9.6850    1.0000 </r>
       <r>   12.2161    0.5342 </r>
       <r>   15.9561    0.0000 </r>
       <r>   18.5654    0.0000 </r>
       <r>   26.4934    0.0000 </r>
       <r>   28.0628    0.0000 </r>
       <r>   30.9180    0.0000 </r>
       <r>   38.9240    0.0000 </r>
       <r>   40.8706    0.0000 </r>
       <r>   41.8710    0.0000 </r>
       <r>   45.1601    0.0000 </r>
       <r>   48.7651    0.0000 </r>
       <r>   49.9226    0.0000 </r>
       <r>   52.2193    0.0000 </r>
       <r>   52.8459    0.0000 </r>
       <r>   55.1697    0.0000 </r>
       <r>   57.7984    0.0000 </r>
       <r>   60.3968    0.0000 </r>
      </set>
      <set comment="kpoint 24">
       <r>  -40.7577    1.0000 </r>
       <r>  -40.5779    1.0000 </r>
       <r>  -40.4592    1.0000 </r>
       <r>    6.1811    1.0000 </r>
       <r>    7.4082    1.0000 </r>
       <r>    8.5214    1.0000 </r>
       <r>    9.5431    1.0000 </r>
       <r>   11.6188    1.0000 </r>
       <r>   15.7522    0.0000 </r>
       <r>   19.3592    0.0000 </r>
       <r>   25.4317    0.0000 </r>
       <r>   29.0313    0.0000 </r>
       <r>   31.1934    0.0000 </r>
       <r>   37.8711    0.0000 </r>
       <r>   40.1116    0.0000 </r>
       <r>   43.4123    0.0000 </r>
       <r>   46.9110    0.0000 </r>
       <r>   48.3456    0.0000 </r>
       <r>   50.3246    0.0000 </r>
       <r>   51.4742    0.0000 </r>
       <r>   52.8450    0.0000 </r>
       <r>   53.3812    0.0000 </r>
       <r>   57.4508    0.0000 </r>
       <r>   59.6248    0.0000 </r>
      </set>
      <set comment="kpoint 25">
       <r>  -40.7129    1.0000 </r>
       <r>  -40.5585    1.0000 </r>
       <r>  -40.4326    1.0000 </r>
       <r>    6.2527    1.0000 </r>
       <r>    7.5392    1.0000 </r>
       <r>    7.8189    1.0000 </r>
       <r>    9.6455    1.0000 </r>
       <r>   10.6285    1.0000 </r>
       <r>   14.0848    0.0000 </r>
       <r>   22.6465    0.0000 </r>
       <r>   25.5907    0.0000 </r>
       <r>   29.5480    0.0000 </r>
       <r>   33.6048    0.0000 </r>
       <r>   35.0344    0.0000 </r>
       <r>   40.2286    0.0000 </r>
       <r>   43.7212    0.0000 </r>
       <r>   44.7206    0.0000 </r>
       <r>   46.7130    0.0000 </r>
       <r>   49.2744    0.0000 </r>
       <r>   52.8432    0.0000 </r>
       <r>   53.2856    0.0000 </r>
       <r>   56.5385    0.0000 </r>
       <r>   57.3647    0.0000 </r>
       <r>   58.2561    0.0000 </r>
      </set>
      <set comment="kpoint 26">
       <r>  -40.6612    1.0000 </r>
       <r>  -40.4926    1.0000 </r>
       <r>  -40.4072    1.0000 </r>
       <r>    5.3046    1.0000 </r>
       <r>    7.3886    1.0000 </r>
       <r>    8.3267    1.0000 </r>
       <r>    9.4956    1.0000 </r>
       <r>   10.0689    1.0000 </r>
       <r>   12.5856    0.0000 </r>
       <r>   24.7255    0.0000 </r>
       <r>   27.7947    0.0000 </r>
       <r>   30.3018    0.0000 </r>
       <r>   33.0893    0.0000 </r>
       <r>   36.2393    0.0000 </r>
       <r>   39.9814    0.0000 </r>
       <r>   41.2937    0.0000 </r>
       <r>   42.6161    0.0000 </r>
       <r>   46.9035    0.0000 </r>
       <r>   48.6091    0.0000 </r>
       <r>   52.8189    0.0000 </r>
       <r>   52.8409    0.0000 </r>
       <r>   56.5625    0.0000 </r>
       <r>   58.5246    0.0000 </r>
       <r>   59.3322    0.0000 </r>
      </set>
      <set comment="kpoint 27">
       <r>  -40.6064    1.0000 </r>
       <r>  -40.4200    1.0000 </r>
       <r>  -40.3930    1.0000 </r>
       <r>    4.1912    1.0000 </r>
       <r>    7.7222    1.0000 </r>
       <r>    8.7144    1.0000 </r>
       <r>    8.9403    1.0000 </r>
       <r>   10.3350    1.0000 </r>
       <r>   11.2785    1.0000 </r>
       <r>   25.7085    0.0000 </r>
       <r>   28.8559    0.0000 </r>
       <r>   32.4959    0.0000 </r>
       <r>   33.8457    0.0000 </r>
       <r>   36.6969    0.0000 </r>
       <r>   37.5788    0.0000 </r>
       <r>   39.1635    0.0000 </r>
       <r>   44.1631    0.0000 </r>
       <r>   47.2903    0.0000 </r>
       <r>   49.7261    0.0000 </r>
       <r>   50.5100    0.0000 </r>
       <r>   52.8381    0.0000 </r>
       <r>   54.0081    0.0000 </r>
       <r>   57.2640    0.0000 </r>
       <r>   61.7674    0.0000 </r>
      </set>
      <set comment="kpoint 28">
       <r>  -40.6981    1.0000 </r>
       <r>  -40.4936    1.0000 </r>
       <r>  -40.4906    1.0000 </r>
       <r>    5.3591    1.0000 </r>
       <r>    6.1781    1.0000 </r>
       <r>    9.6199    1.0000 </r>
       <r>   10.8948    1.0000 </r>
       <r>   11.3264    1.0000 </r>
       <r>   11.8137    1.0000 </r>
       <r>   26.2944    0.0000 </r>
       <r>   27.0442    0.0000 </r>
       <r>   27.9462    0.0000 </r>
       <r>   31.6703    0.0000 </r>
       <r>   33.2406    0.0000 </r>
       <r>   40.9947    0.0000 </r>
       <r>   41.4190    0.0000 </r>
       <r>   43.5881    0.0000 </r>
       <r>   47.0308    0.0000 </r>
       <r>   50.0018    0.0000 </r>
       <r>   52.8307    0.0000 </r>
       <r>   55.5774    0.0000 </r>
       <r>   55.5876    0.0000 </r>
       <r>   56.2327    0.0000 </r>
       <r>   61.3889    0.0000 </r>
      </set>
      <set comment="kpoint 29">
       <r>  -40.7491    1.0000 </r>
       <r>  -40.5302    1.0000 </r>
       <r>  -40.5090    1.0000 </r>
       <r>    5.5311    1.0000 </r>
       <r>    6.0323    1.0000 </r>
       <r>    9.7573    1.0000 </r>
       <r>   11.2996    1.0000 </r>
       <r>   12.0235    1.0000 </r>
       <r>   13.2833    0.0000 </r>
       <r>   23.4194    0.0000 </r>
       <r>   25.4448    0.0000 </r>
       <r>   26.2860    0.0000 </r>
       <r>   32.7075    0.0000 </r>
       <r>   34.5696    0.0000 </r>
       <r>   40.6495    0.0000 </r>
       <r>   43.3238    0.0000 </r>
       <r>   44.7527    0.0000 </r>
       <r>   47.8034    0.0000 </r>
       <r>   48.9555    0.0000 </r>
       <r>   52.8374    0.0000 </r>
       <r>   54.0596    0.0000 </r>
       <r>   56.4870    0.0000 </r>
       <r>   58.0650    0.0000 </r>
       <r>   59.0305    0.0000 </r>
      </set>
      <set comment="kpoint 30">
       <r>  -40.7594    1.0000 </r>
       <r>  -40.5880    1.0000 </r>
       <r>  -40.5108    1.0000 </r>
       <r>    5.7627    1.0000 </r>
       <r>    6.4153    1.0000 </r>
       <r>    9.3281    1.0000 </r>
       <r>   10.8826    1.0000 </r>
       <r>   12.3562    0.0001 </r>
       <r>   16.1881    0.0000 </r>
       <r>   19.8760    0.0000 </r>
       <r>   24.2865    0.0000 </r>
       <r>   26.0325    0.0000 </r>
       <r>   32.7220    0.0000 </r>
       <r>   37.2584    0.0000 </r>
       <r>   39.8415    0.0000 </r>
       <r>   42.9005    0.0000 </r>
       <r>   47.0091    0.0000 </r>
       <r>   48.4789    0.0000 </r>
       <r>   49.2163    0.0000 </r>
       <r>   52.8412    0.0000 </r>
       <r>   53.1810    0.0000 </r>
       <r>   55.0341    0.0000 </r>
       <r>   57.4618    0.0000 </r>
       <r>   58.6550    0.0000 </r>
      </set>
      <set comment="kpoint 31">
       <r>  -40.7156    1.0000 </r>
       <r>  -40.6573    1.0000 </r>
       <r>  -40.4924    1.0000 </r>
       <r>    6.1596    1.0000 </r>
       <r>    7.0434    1.0000 </r>
       <r>    8.6398    1.0000 </r>
       <r>   10.4159    1.0000 </r>
       <r>   11.8684    1.0000 </r>
       <r>   17.2419    0.0000 </r>
       <r>   19.7244    0.0000 </r>
       <r>   22.5698    0.0000 </r>
       <r>   27.6594    0.0000 </r>
       <r>   32.0049    0.0000 </r>
       <r>   38.6949    0.0000 </r>
       <r>   40.5156    0.0000 </r>
       <r>   40.7661    0.0000 </r>
       <r>   47.9233    0.0000 </r>
       <r>   48.7960    0.0000 </r>
       <r>   51.7127    0.0000 </r>
       <r>   52.8174    0.0000 </r>
       <r>   52.8508    0.0000 </r>
       <r>   53.3532    0.0000 </r>
       <r>   56.3722    0.0000 </r>
       <r>   58.8673    0.0000 </r>
      </set>
      <set comment="kpoint 32">
       <r>  -40.7181    1.0000 </r>
       <r>  -40.6259    1.0000 </r>
       <r>  -40.4621    1.0000 </r>
       <r>    6.5419    1.0000 </r>
       <r>    7.4125    1.0000 </r>
       <r>    7.9819    1.0000 </r>
       <r>    9.9141    1.0000 </r>
       <r>   11.2692    1.0000 </r>
       <r>   15.6199    0.0000 </r>
       <r>   21.2413    0.0000 </r>
       <r>   23.4565    0.0000 </r>
       <r>   29.3264    0.0000 </r>
       <r>   31.6960    0.0000 </r>
       <r>   36.9961    0.0000 </r>
       <r>   39.9818    0.0000 </r>
       <r>   43.2390    0.0000 </r>
       <r>   46.7406    0.0000 </r>
       <r>   49.7666    0.0000 </r>
       <r>   50.6423    0.0000 </r>
       <r>   50.9252    0.0000 </r>
       <r>   52.8510    0.0000 </r>
       <r>   54.0309    0.0000 </r>
       <r>   55.6922    0.0000 </r>
       <r>   59.7202    0.0000 </r>
      </set>
      <set comment="kpoint 33">
       <r>  -40.7471    1.0000 </r>
       <r>  -40.5240    1.0000 </r>
       <r>  -40.4327    1.0000 </r>
       <r>    5.7825    1.0000 </r>
       <r>    7.8295    1.0000 </r>
       <r>    8.3069    1.0000 </r>
       <r>    9.2270    1.0000 </r>
       <r>   11.1386    1.0000 </r>
       <r>   14.0021    0.0000 </r>
       <r>   21.1717    0.0000 </r>
       <r>   26.9722    0.0000 </r>
       <r>   29.0411    0.0000 </r>
       <r>   32.8849    0.0000 </r>
       <r>   36.3407    0.0000 </r>
       <r>   40.3362    0.0000 </r>
       <r>   43.4258    0.0000 </r>
       <r>   44.2727    0.0000 </r>
       <r>   48.3045    0.0000 </r>
       <r>   49.6001    0.0000 </r>
       <r>   51.8417    0.0000 </r>
       <r>   52.8427    0.0000 </r>
       <r>   56.0495    0.0000 </r>
       <r>   57.5086    0.0000 </r>
       <r>   59.2529    0.0000 </r>
      </set>
      <set comment="kpoint 34">
       <r>  -40.7382    1.0000 </r>
       <r>  -40.4409    1.0000 </r>
       <r>  -40.4158    1.0000 </r>
       <r>    4.9300    1.0000 </r>
       <r>    8.3545    1.0000 </r>
       <r>    8.6401    1.0000 </r>
       <r>    8.7541    1.0000 </r>
       <r>   11.3024    1.0000 </r>
       <r>   12.2117    0.5834 </r>
       <r>   22.0297    0.0000 </r>
       <r>   27.7014    0.0000 </r>
       <r>   31.2070    0.0000 </r>
       <r>   33.5512    0.0000 </r>
       <r>   37.0356    0.0000 </r>
       <r>   39.0931    0.0000 </r>
       <r>   39.9470    0.0000 </r>
       <r>   44.6828    0.0000 </r>
       <r>   49.1561    0.0000 </r>
       <r>   50.8372    0.0000 </r>
       <r>   52.3390    0.0000 </r>
       <r>   52.8436    0.0000 </r>
       <r>   54.1833    0.0000 </r>
       <r>   57.6079    0.0000 </r>
       <r>   59.0842    0.0000 </r>
      </set>
      <set comment="kpoint 35">
       <r>  -40.7893    1.0000 </r>
       <r>  -40.5356    1.0000 </r>
       <r>  -40.5293    1.0000 </r>
       <r>    5.1931    1.0000 </r>
       <r>    5.6563    1.0000 </r>
       <r>   11.5968    1.0000 </r>
       <r>   11.9255    1.0000 </r>
       <r>   12.4023    0.0000 </r>
       <r>   13.3584    0.0000 </r>
       <r>   22.6430    0.0000 </r>
       <r>   24.3548    0.0000 </r>
       <r>   24.4672    0.0000 </r>
       <r>   32.2642    0.0000 </r>
       <r>   35.1298    0.0000 </r>
       <r>   41.0259    0.0000 </r>
       <r>   45.2375    0.0000 </r>
       <r>   45.7458    0.0000 </r>
       <r>   47.7041    0.0000 </r>
       <r>   49.5548    0.0000 </r>
       <r>   52.8421    0.0000 </r>
       <r>   54.9387    0.0000 </r>
       <r>   54.9992    0.0000 </r>
       <r>   56.0583    0.0000 </r>
       <r>   56.6582    0.0000 </r>
      </set>
      <set comment="kpoint 36">
       <r>  -40.7970    1.0000 </r>
       <r>  -40.5602    1.0000 </r>
       <r>  -40.5366    1.0000 </r>
       <r>    5.2836    1.0000 </r>
       <r>    5.7220    1.0000 </r>
       <r>   11.0769    1.0000 </r>
       <r>   11.8389    1.0000 </r>
       <r>   12.6154    0.0000 </r>
       <r>   15.5426    0.0000 </r>
       <r>   20.6288    0.0000 </r>
       <r>   23.3876    0.0000 </r>
       <r>   24.2072    0.0000 </r>
       <r>   33.3185    0.0000 </r>
       <r>   35.5748    0.0000 </r>
       <r>   40.3415    0.0000 </r>
       <r>   45.2268    0.0000 </r>
       <r>   47.8980    0.0000 </r>
       <r>   48.2043    0.0000 </r>
       <r>   49.9640    0.0000 </r>
       <r>   52.8363    0.0000 </r>
       <r>   53.2516    0.0000 </r>
       <r>   54.3519    0.0000 </r>
       <r>   54.6107    0.0000 </r>
       <r>   56.0220    0.0000 </r>
      </set>
      <set comment="kpoint 37">
       <r>  -40.7613    1.0000 </r>
       <r>  -40.6087    1.0000 </r>
       <r>  -40.5185    1.0000 </r>
       <r>    5.6880    1.0000 </r>
       <r>    6.3025    1.0000 </r>
       <r>    9.7220    1.0000 </r>
       <r>   11.1361    1.0000 </r>
       <r>   12.3434    0.0002 </r>
       <r>   17.5616    0.0000 </r>
       <r>   19.0995    0.0000 </r>
       <r>   22.8679    0.0000 </r>
       <r>   25.6359    0.0000 </r>
       <r>   33.1619    0.0000 </r>
       <r>   37.4036    0.0000 </r>
       <r>   39.6504    0.0000 </r>
       <r>   42.8332    0.0000 </r>
       <r>   48.3211    0.0000 </r>
       <r>   48.4772    0.0000 </r>
       <r>   50.6054    0.0000 </r>
       <r>   51.9910    0.0000 </r>
       <r>   52.8495    0.0000 </r>
       <r>   55.1714    0.0000 </r>
       <r>   55.7741    0.0000 </r>
       <r>   58.2686    0.0000 </r>
      </set>
      <set comment="kpoint 38">
       <r>  -40.7487    1.0000 </r>
       <r>  -40.6078    1.0000 </r>
       <r>  -40.4869    1.0000 </r>
       <r>    6.1211    1.0000 </r>
       <r>    7.1066    1.0000 </r>
       <r>    8.5769    1.0000 </r>
       <r>   10.1063    1.0000 </r>
       <r>   12.0566    1.0000 </r>
       <r>   17.7155    0.0000 </r>
       <r>   17.8356    0.0000 </r>
       <r>   24.5512    0.0000 </r>
       <r>   27.7864    0.0000 </r>
       <r>   31.4803    0.0000 </r>
       <r>   38.8263    0.0000 </r>
       <r>   40.6258    0.0000 </r>
       <r>   41.3501    0.0000 </r>
       <r>   46.9768    0.0000 </r>
       <r>   48.3182    0.0000 </r>
       <r>   50.7014    0.0000 </r>
       <r>   52.7443    0.0000 </r>
       <r>   52.8436    0.0000 </r>
       <r>   54.2795    0.0000 </r>
       <r>   57.2833    0.0000 </r>
       <r>   59.6819    0.0000 </r>
      </set>
      <set comment="kpoint 39">
       <r>  -40.7928    1.0000 </r>
       <r>  -40.5258    1.0000 </r>
       <r>  -40.4529    1.0000 </r>
       <r>    5.7217    1.0000 </r>
       <r>    7.5968    1.0000 </r>
       <r>    9.1116    1.0000 </r>
       <r>    9.1254    1.0000 </r>
       <r>   11.9763    1.0000 </r>
       <r>   15.6604    0.0000 </r>
       <r>   18.0183    0.0000 </r>
       <r>   27.0105    0.0000 </r>
       <r>   28.7759    0.0000 </r>
       <r>   30.7546    0.0000 </r>
       <r>   38.9866    0.0000 </r>
       <r>   40.2713    0.0000 </r>
       <r>   43.6587    0.0000 </r>
       <r>   46.4798    0.0000 </r>
       <r>   47.3209    0.0000 </r>
       <r>   50.0903    0.0000 </r>
       <r>   52.3419    0.0000 </r>
       <r>   52.8453    0.0000 </r>
       <r>   52.9991    0.0000 </r>
       <r>   58.2740    0.0000 </r>
       <r>   59.7357    0.0000 </r>
      </set>
      <set comment="kpoint 40">
       <r>  -40.8187    1.0000 </r>
       <r>  -40.4515    1.0000 </r>
       <r>  -40.4323    1.0000 </r>
       <r>    5.0239    1.0000 </r>
       <r>    8.1276    1.0000 </r>
       <r>    8.5210    1.0000 </r>
       <r>   10.1476    1.0000 </r>
       <r>   12.0958    0.9998 </r>
       <r>   13.3960    0.0000 </r>
       <r>   18.6630    0.0000 </r>
       <r>   26.8850    0.0000 </r>
       <r>   30.3980    0.0000 </r>
       <r>   31.4270    0.0000 </r>
       <r>   39.5197    0.0000 </r>
       <r>   40.5616    0.0000 </r>
       <r>   42.0271    0.0000 </r>
       <r>   46.0178    0.0000 </r>
       <r>   48.6179    0.0000 </r>
       <r>   48.8573    0.0000 </r>
       <r>   52.8450    0.0000 </r>
       <r>   53.2110    0.0000 </r>
       <r>   55.6299    0.0000 </r>
       <r>   57.9029    0.0000 </r>
       <r>   58.6654    0.0000 </r>
      </set>
      <set comment="kpoint 41">
       <r>  -40.8097    1.0000 </r>
       <r>  -40.5450    1.0000 </r>
       <r>  -40.5383    1.0000 </r>
       <r>    5.0937    1.0000 </r>
       <r>    5.5464    1.0000 </r>
       <r>   12.1132    0.9986 </r>
       <r>   12.1270    0.9954 </r>
       <r>   12.6355    0.0000 </r>
       <r>   14.3573    0.0000 </r>
       <r>   21.1838    0.0000 </r>
       <r>   23.6128    0.0000 </r>
       <r>   23.8510    0.0000 </r>
       <r>   32.5590    0.0000 </r>
       <r>   35.5525    0.0000 </r>
       <r>   40.6853    0.0000 </r>
       <r>   46.2956    0.0000 </r>
       <r>   47.8071    0.0000 </r>
       <r>   47.9158    0.0000 </r>
       <r>   50.3635    0.0000 </r>
       <r>   52.3618    0.0000 </r>
       <r>   52.8355    0.0000 </r>
       <r>   52.8979    0.0000 </r>
       <r>   55.8346    0.0000 </r>
       <r>   56.8139    0.0000 </r>
      </set>
      <set comment="kpoint 42">
       <r>  -40.7805    1.0000 </r>
       <r>  -40.5494    1.0000 </r>
       <r>  -40.5271    1.0000 </r>
       <r>    5.3861    1.0000 </r>
       <r>    5.8274    1.0000 </r>
       <r>   10.5472    1.0000 </r>
       <r>   11.7077    1.0000 </r>
       <r>   12.3830    0.0000 </r>
       <r>   14.4787    0.0000 </r>
       <r>   21.8614    0.0000 </r>
       <r>   24.1856    0.0000 </r>
       <r>   24.8898    0.0000 </r>
       <r>   33.0395    0.0000 </r>
       <r>   35.2206    0.0000 </r>
       <r>   40.5426    0.0000 </r>
       <r>   44.7395    0.0000 </r>
       <r>   46.0143    0.0000 </r>
       <r>   48.1118    0.0000 </r>
       <r>   49.3981    0.0000 </r>
       <r>   52.8407    0.0000 </r>
       <r>   53.9732    0.0000 </r>
       <r>   54.9186    0.0000 </r>
       <r>   56.4289    0.0000 </r>
       <r>   57.0302    0.0000 </r>
      </set>
      <set comment="kpoint 43">
       <r>  -40.7506    1.0000 </r>
       <r>  -40.5539    1.0000 </r>
       <r>  -40.4952    1.0000 </r>
       <r>    5.8422    1.0000 </r>
       <r>    6.6454    1.0000 </r>
       <r>    8.7619    1.0000 </r>
       <r>   10.4473    1.0000 </r>
       <r>   12.2840    0.0331 </r>
       <r>   14.6618    0.0000 </r>
       <r>   20.9659    0.0000 </r>
       <r>   26.1083    0.0000 </r>
       <r>   26.8243    0.0000 </r>
       <r>   32.1537    0.0000 </r>
       <r>   37.0876    0.0000 </r>
       <r>   39.9185    0.0000 </r>
       <r>   42.4931    0.0000 </r>
       <r>   45.8029    0.0000 </r>
       <r>   47.6404    0.0000 </r>
       <r>   49.1884    0.0000 </r>
       <r>   52.8372    0.0000 </r>
       <r>   53.2147    0.0000 </r>
       <r>   56.0717    0.0000 </r>
       <r>   58.2310    0.0000 </r>
       <r>   60.4255    0.0000 </r>
      </set>
      <set comment="kpoint 44">
       <r>  -40.7756    1.0000 </r>
       <r>  -40.5061    1.0000 </r>
       <r>  -40.4587    1.0000 </r>
       <r>    5.6541    1.0000 </r>
       <r>    7.6459    1.0000 </r>
       <r>    8.5417    1.0000 </r>
       <r>    9.2789    1.0000 </r>
       <r>   12.1882    0.8094 </r>
       <r>   14.3042    0.0000 </r>
       <r>   19.6432    0.0000 </r>
       <r>   27.6572    0.0000 </r>
       <r>   28.6985    0.0000 </r>
       <r>   31.0206    0.0000 </r>
       <r>   38.7331    0.0000 </r>
       <r>   41.1090    0.0000 </r>
       <r>   41.8050    0.0000 </r>
       <r>   43.5644    0.0000 </r>
       <r>   49.6623    0.0000 </r>
       <r>   49.8269    0.0000 </r>
       <r>   51.6542    0.0000 </r>
       <r>   52.8428    0.0000 </r>
       <r>   55.9880    0.0000 </r>
       <r>   57.4241    0.0000 </r>
       <r>   60.2299    0.0000 </r>
      </set>
      <set comment="kpoint 45">
       <r>  -40.7518    1.0000 </r>
       <r>  -40.5179    1.0000 </r>
       <r>  -40.5133    1.0000 </r>
       <r>    5.3329    1.0000 </r>
       <r>    5.8706    1.0000 </r>
       <r>   10.6319    1.0000 </r>
       <r>   11.4936    1.0000 </r>
       <r>   12.1041    0.9994 </r>
       <r>   12.2491    0.1980 </r>
       <r>   24.5478    0.0000 </r>
       <r>   25.5847    0.0000 </r>
       <r>   25.8573    0.0000 </r>
       <r>   31.8515    0.0000 </r>
       <r>   34.3266    0.0000 </r>
       <r>   41.5187    0.0000 </r>
       <r>   43.2596    0.0000 </r>
       <r>   43.8477    0.0000 </r>
       <r>   48.2386    0.0000 </r>
       <r>   48.8004    0.0000 </r>
       <r>   52.8342    0.0000 </r>
       <r>   55.8073    0.0000 </r>
       <r>   56.1092    0.0000 </r>
       <r>   57.9986    0.0000 </r>
       <r>   58.2804    0.0000 </r>
      </set>
      <set comment="kpoint 46">
       <r>  -40.7046    1.0000 </r>
       <r>  -40.5046    1.0000 </r>
       <r>  -40.4833    1.0000 </r>
       <r>    5.5576    1.0000 </r>
       <r>    6.3230    1.0000 </r>
       <r>    9.0069    1.0000 </r>
       <r>   10.7318    1.0000 </r>
       <r>   11.4754    1.0000 </r>
       <r>   12.3938    0.0000 </r>
       <r>   24.9876    0.0000 </r>
       <r>   26.8937    0.0000 </r>
       <r>   28.0355    0.0000 </r>
       <r>   32.5827    0.0000 </r>
       <r>   33.8901    0.0000 </r>
       <r>   40.1088    0.0000 </r>
       <r>   41.7018    0.0000 </r>
       <r>   44.6996    0.0000 </r>
       <r>   46.3310    0.0000 </r>
       <r>   49.9489    0.0000 </r>
       <r>   52.8352    0.0000 </r>
       <r>   54.3241    0.0000 </r>
       <r>   56.3036    0.0000 </r>
       <r>   56.7228    0.0000 </r>
       <r>   61.0820    0.0000 </r>
      </set>
      <set comment="kpoint 47">
       <r>  -40.6984    1.0000 </r>
       <r>  -40.4776    1.0000 </r>
       <r>  -40.4445    1.0000 </r>
       <r>    5.4329    1.0000 </r>
       <r>    7.2724    1.0000 </r>
       <r>    8.2158    1.0000 </r>
       <r>    9.5221    1.0000 </r>
       <r>   11.4320    1.0000 </r>
       <r>   12.4077    0.0000 </r>
       <r>   23.5481    0.0000 </r>
       <r>   28.5962    0.0000 </r>
       <r>   29.3106    0.0000 </r>
       <r>   32.2816    0.0000 </r>
       <r>   37.0063    0.0000 </r>
       <r>   38.9738    0.0000 </r>
       <r>   40.7479    0.0000 </r>
       <r>   43.2484    0.0000 </r>
       <r>   47.7417    0.0000 </r>
       <r>   50.5951    0.0000 </r>
       <r>   52.8409    0.0000 </r>
       <r>   53.5744    0.0000 </r>
       <r>   53.8878    0.0000 </r>
       <r>   57.5234    0.0000 </r>
       <r>   60.9247    0.0000 </r>
      </set>
      <set comment="kpoint 48">
       <r>  -40.6332    1.0000 </r>
       <r>  -40.4650    1.0000 </r>
       <r>  -40.4637    1.0000 </r>
       <r>    5.0286    1.0000 </r>
       <r>    6.5604    1.0000 </r>
       <r>    9.0617    1.0000 </r>
       <r>   10.2637    1.0000 </r>
       <r>   10.5467    1.0000 </r>
       <r>   11.5186    1.0000 </r>
       <r>   27.8201    0.0000 </r>
       <r>   28.6735    0.0000 </r>
       <r>   29.6086    0.0000 </r>
       <r>   31.8464    0.0000 </r>
       <r>   32.7490    0.0000 </r>
       <r>   39.7070    0.0000 </r>
       <r>   39.9377    0.0000 </r>
       <r>   44.8030    0.0000 </r>
       <r>   46.0338    0.0000 </r>
       <r>   49.9982    0.0000 </r>
       <r>   52.8314    0.0000 </r>
       <r>   53.8784    0.0000 </r>
       <r>   54.8404    0.0000 </r>
       <r>   55.4759    0.0000 </r>
       <r>   64.1223    0.0000 </r>
      </set>
      <set comment="kpoint 49">
       <r>  -40.5894    1.0000 </r>
       <r>  -40.4454    1.0000 </r>
       <r>  -40.4221    1.0000 </r>
       <r>    4.5015    1.0000 </r>
       <r>    7.0748    1.0000 </r>
       <r>    8.7573    1.0000 </r>
       <r>    9.6183    1.0000 </r>
       <r>   10.1623    1.0000 </r>
       <r>   11.4098    1.0000 </r>
       <r>   27.3579    0.0000 </r>
       <r>   29.4825    0.0000 </r>
       <r>   30.8596    0.0000 </r>
       <r>   31.6564    0.0000 </r>
       <r>   36.0658    0.0000 </r>
       <r>   38.2832    0.0000 </r>
       <r>   39.4984    0.0000 </r>
       <r>   44.2215    0.0000 </r>
       <r>   47.0013    0.0000 </r>
       <r>   48.4618    0.0000 </r>
       <r>   51.3526    0.0000 </r>
       <r>   52.8381    0.0000 </r>
       <r>   54.9478    0.0000 </r>
       <r>   56.9274    0.0000 </r>
       <r>   63.1199    0.0000 </r>
      </set>
      <set comment="kpoint 50">
       <r>  -40.4976    1.0000 </r>
       <r>  -40.4085    1.0000 </r>
       <r>  -40.4057    1.0000 </r>
       <r>    3.4858    1.0000 </r>
       <r>    7.4319    1.0000 </r>
       <r>    9.1029    1.0000 </r>
       <r>    9.1810    1.0000 </r>
       <r>    9.6755    1.0000 </r>
       <r>   10.9693    1.0000 </r>
       <r>   29.1273    0.0000 </r>
       <r>   29.3093    0.0000 </r>
       <r>   31.4118    0.0000 </r>
       <r>   31.8519    0.0000 </r>
       <r>   37.4356    0.0000 </r>
       <r>   38.7907    0.0000 </r>
       <r>   39.4556    0.0000 </r>
       <r>   44.5378    0.0000 </r>
       <r>   44.7031    0.0000 </r>
       <r>   48.3099    0.0000 </r>
       <r>   52.3481    0.0000 </r>
       <r>   52.6842    0.0000 </r>
       <r>   52.8376    0.0000 </r>
       <r>   55.8879    0.0000 </r>
       <r>   64.2243    0.0000 </r>
      </set>
      <set comment="kpoint 51">
       <r>  -40.4602    1.0000 </r>
       <r>  -40.3725    1.0000 </r>
       <r>  -40.3725    1.0000 </r>
       <r>    2.7445    1.0000 </r>
       <r>    8.0346    1.0000 </r>
       <r>    8.6479    1.0000 </r>
       <r>    8.6479    1.0000 </r>
       <r>   10.4344    1.0000 </r>
       <r>   10.4344    1.0000 </r>
       <r>   28.0026    0.0000 </r>
       <r>   28.6211    0.0000 </r>
       <r>   33.1291    0.0000 </r>
       <r>   33.1291    0.0000 </r>
       <r>   37.7445    0.0000 </r>
       <r>   40.4767    0.0000 </r>
       <r>   40.4767    0.0000 </r>
       <r>   42.1433    0.0000 </r>
       <r>   47.5284    0.0000 </r>
       <r>   47.5284    0.0000 </r>
       <r>   50.4332    0.0000 </r>
       <r>   52.8374    0.0000 </r>
       <r>   53.8791    0.0000 </r>
       <r>   53.8791    0.0000 </r>
       <r>   61.4060    0.0000 </r>
      </set>
      <set comment="kpoint 52">
       <r>  -40.5202    1.0000 </r>
       <r>  -40.4114    1.0000 </r>
       <r>  -40.3751    1.0000 </r>
       <r>    3.4601    1.0000 </r>
       <r>    7.7387    1.0000 </r>
       <r>    8.7992    1.0000 </r>
       <r>    8.9244    1.0000 </r>
       <r>    9.9738    1.0000 </r>
       <r>   10.9580    1.0000 </r>
       <r>   27.6717    0.0000 </r>
       <r>   28.7691    0.0000 </r>
       <r>   31.9302    0.0000 </r>
       <r>   34.7962    0.0000 </r>
       <r>   35.1372    0.0000 </r>
       <r>   39.9475    0.0000 </r>
       <r>   40.8973    0.0000 </r>
       <r>   43.3712    0.0000 </r>
       <r>   44.2970    0.0000 </r>
       <r>   48.5697    0.0000 </r>
       <r>   50.9348    0.0000 </r>
       <r>   52.8393    0.0000 </r>
[...]
       </set>
       <set comment="band 3">
        <r>  0.0000  0.4972  0.0000  0.4972  0.0000  0.0000  0.0000  0.0000  0.0000 </r>
       </set>
       <set comment="band 4">
        <r>  0.1437  0.0000  0.0062  0.0000  0.1899  0.1397  0.0046  0.1397  0.0000 </r>
       </set>
       <set comment="band 5">
        <r>  0.0001  0.0012  0.0000  0.0012  0.1243  0.0737  0.5316  0.0737  0.0000 </r>
       </set>
       <set comment="band 6">
        <r>  0.0000  0.0007  0.0000  0.0007  0.0000  0.1825  0.0000  0.1825  0.4720 </r>
       </set>
       <set comment="band 7">
        <r>  0.0345  0.0249  0.0252  0.0249  0.3662  0.0075  0.0720  0.0075  0.0000 </r>
       </set>
       <set comment="band 8">
        <r>  0.0000  0.0001  0.0000  0.0001  0.0000  0.2698  0.0000  0.2698  0.4102 </r>
       </set>
       <set comment="band 9">
        <r>  0.0380  0.0147  0.0288  0.0147  0.0846  0.1506  0.2394  0.1506  0.0000 </r>
       </set>
       <set comment="band 10">
        <r>  0.2902  0.0217  0.0140  0.0217  0.1122  0.0922  0.0037  0.0922  0.0000 </r>
       </set>
       <set comment="band 11">
        <r>  0.0016  0.0024  0.0105  0.0024  0.0200  0.0000  0.0236  0.0000  0.0000 </r>
       </set>
       <set comment="band 12">
        <r>  0.0000  0.1158  0.0000  0.1158  0.0000  0.0132  0.0000  0.0132  0.0143 </r>
       </set>
       <set comment="band 13">
        <r>  0.0192  0.0328  0.1356  0.0328  0.0453  0.0061  0.0351  0.0061  0.0000 </r>
       </set>
       <set comment="band 14">
        <r>  0.0000  0.0022  0.0000  0.0022  0.0000  0.0293  0.0000  0.0293  0.1713 </r>
       </set>
       <set comment="band 15">
        <r>  0.0014  0.0145  0.0024  0.0145  0.0371  0.0212  0.1814  0.0212  0.0000 </r>
       </set>
       <set comment="band 16">
        <r>  0.0485  0.0245  0.0015  0.0245  0.0901  0.0120  0.0587  0.0120  0.0000 </r>
       </set>
       <set comment="band 17">
        <r>  0.1041  0.0405  0.1113  0.0405  0.0127  0.0326  0.0000  0.0326  0.0000 </r>
       </set>
       <set comment="band 18">
        <r>  0.0375  0.0019  0.0858  0.0019  0.0155  0.0360  0.0005  0.0360  0.0000 </r>
       </set>
       <set comment="band 19">
        <r>  0.0000  0.1141  0.0000  0.1141  0.0000  0.0424  0.0000  0.0424  0.0939 </r>
       </set>
       <set comment="band 20">
        <r>  0.0000  0.1074  0.0000  0.1074  0.0000  0.0216  0.0000  0.0216  0.0018 </r>
       </set>
       <set comment="band 21">
        <r>  6.2923  0.0000  0.0000  0.0000  0.0000  0.0000  0.0000  0.0000  0.0000 </r>
       </set>
       <set comment="band 22">
        <r>  0.0014  0.0089  0.0816  0.0089  0.0230  0.0029  0.0450  0.0029  0.0000 </r>
       </set>
       <set comment="band 23">
        <r>  0.0127  0.0030  0.0314  0.0030  0.1584  0.0073  0.0000  0.0073  0.0000 </r>
       </set>
       <set comment="band 24">
        <r>  0.1055  0.0022  0.0001  0.0022  0.0540  0.0027  0.0002  0.0027  0.0000 </r>
       </set>
      </set>
      <set comment="kpoint 106">
       <set comment="band 1">
        <r>  0.0000  0.2955  0.4047  0.2826  0.0000  0.0000  0.0000  0.0000  0.0000 </r>
       </set>
       <set comment="band 2">
        <r>  0.0000  0.0041  0.3656  0.6224  0.0000  0.0000  0.0000  0.0000  0.0000 </r>
       </set>
       <set comment="band 3">
        <r>  0.0000  0.6911  0.2184  0.0846  0.0000  0.0000  0.0000  0.0000  0.0000 </r>
       </set>
       <set comment="band 4">
        <r>  0.1090  0.0004  0.0076  0.0033  0.2224  0.1893  0.0066  0.1059  0.0011 </r>
       </set>
       <set comment="band 5">
        <r>  0.0000  0.0060  0.0001  0.0003  0.0628  0.1291  0.4419  0.0012  0.1201 </r>
       </set>
       <set comment="band 6">
        <r>  0.0083  0.0125  0.0112  0.0209  0.1770  0.1756  0.1475  0.0750  0.0535 </r>
       </set>
       <set comment="band 7">
        <r>  0.0038  0.0058  0.0126  0.0015  0.1711  0.0029  0.0332  0.1700  0.3794 </r>
       </set>
       <set comment="band 8">
        <r>  0.0007  0.0002  0.0013  0.0006  0.0845  0.0847  0.0687  0.4472  0.2434 </r>
       </set>
       <set comment="band 9">
        <r>  0.0680  0.0219  0.0415  0.0211  0.0221  0.2718  0.1321  0.0152  0.0572 </r>
       </set>
       <set comment="band 10">
        <r>  0.3083  0.0144  0.0084  0.0263  0.1289  0.0494  0.0070  0.0980  0.0175 </r>
       </set>
       <set comment="band 11">
        <r>  0.0016  0.0115  0.0031  0.0484  0.0402  0.0128  0.0506  0.0086  0.0295 </r>
       </set>
       <set comment="band 12">
        <r>  0.0377  0.0047  0.0889  0.0952  0.0172  0.0164  0.0280  0.0311  0.0189 </r>
       </set>
       <set comment="band 13">
        <r>  0.0034  0.1405  0.0521  0.0064  0.0138  0.0009  0.0317  0.0000  0.0002 </r>
       </set>
       <set comment="band 14">
        <r>  0.0000  0.0027  0.0046  0.0151  0.0336  0.0503  0.0039  0.0120  0.0958 </r>
       </set>
       <set comment="band 15">
        <r>  0.0001  0.0000  0.0034  0.0028  0.0797  0.0073  0.1281  0.0144  0.0006 </r>
       </set>
       <set comment="band 16">
        <r>  0.1490  0.0092  0.0017  0.0021  0.0280  0.0099  0.0098  0.0534  0.0000 </r>
       </set>
       <set comment="band 17">
        <r>  0.0556  0.1022  0.0551  0.0297  0.0088  0.0343  0.0230  0.0006  0.0443 </r>
       </set>
       <set comment="band 18">
        <r>  0.0052  0.0926  0.0566  0.0331  0.0032  0.0215  0.0001  0.0230  0.0415 </r>
       </set>
       <set comment="band 19">
        <r>  0.0241  0.0849  0.0421  0.0719  0.0000  0.0355  0.0470  0.0004  0.0401 </r>
       </set>
       <set comment="band 20">
        <r>  0.0000  0.0024  0.0019  0.0172  0.0003  0.0617  0.0069  0.0051  0.0006 </r>
       </set>
       <set comment="band 21">
        <r>  6.2888  0.0000  0.0000  0.0000  0.0000  0.0000  0.0000  0.0000  0.0000 </r>
       </set>
       <set comment="band 22">
        <r>  0.0018  0.0006  0.0170  0.0051  0.0604  0.0010  0.0099  0.0001  0.0121 </r>
       </set>
       <set comment="band 23">
        <r>  0.0201  0.0154  0.0379  0.0042  0.0257  0.0002  0.0038  0.0300  0.0384 </r>
       </set>
       <set comment="band 24">
        <r>  0.0098  0.0040  0.0717  0.0328  0.0289  0.0537  0.0018  0.0063  0.0131 </r>
       </set>
      </set>
      <set comment="kpoint 107">
       <set comment="band 1">
        <r>  0.0000  0.2450  0.3561  0.3832  0.0000  0.0000  0.0000  0.0000  0.0000 </r>
       </set>
       <set comment="band 2">
        <r>  0.0000  0.0520  0.3592  0.5779  0.0000  0.0000  0.0000  0.0000  0.0000 </r>
       </set>
       <set comment="band 3">
        <r>  0.0000  0.6937  0.2732  0.0263  0.0000  0.0000  0.0000  0.0000  0.0000 </r>
       </set>
       <set comment="band 4">
        <r>  0.0582  0.0000  0.0069  0.0056  0.0898  0.4019  0.0240  0.0390  0.0647 </r>
       </set>
       <set comment="band 5">
        <r>  0.0051  0.0135  0.0060  0.0010  0.0985  0.0027  0.3466  0.0164  0.1940 </r>
       </set>
       <set comment="band 6">
        <r>  0.0001  0.0077  0.0109  0.0246  0.3718  0.2081  0.0137  0.0314  0.0134 </r>
       </set>
       <set comment="band 7">
        <r>  0.0017  0.0002  0.0040  0.0020  0.0072  0.0005  0.2869  0.1400  0.4035 </r>
       </set>
       <set comment="band 8">
        <r>  0.0053  0.0000  0.0000  0.0004  0.1502  0.0297  0.0600  0.6021  0.0813 </r>
       </set>
       <set comment="band 9">
        <r>  0.2251  0.0174  0.0431  0.0106  0.0000  0.2155  0.0628  0.0179  0.0087 </r>
       </set>
       <set comment="band 10">
        <r>  0.1758  0.0156  0.0153  0.0659  0.1542  0.0000  0.0280  0.0724  0.0719 </r>
       </set>
       <set comment="band 11">
        <r>  0.0731  0.0158  0.0391  0.1139  0.0605  0.0068  0.0114  0.0389  0.1005 </r>
       </set>
       <set comment="band 12">
        <r>  0.0118  0.0475  0.1001  0.0000  0.0016  0.0460  0.1449  0.0025  0.0032 </r>
       </set>
       <set comment="band 13">
        <r>  0.0015  0.1052  0.0080  0.0050  0.0045  0.0460  0.0042  0.0000  0.0079 </r>
       </set>
       <set comment="band 14">
        <r>  0.0008  0.0000  0.0025  0.0105  0.0747  0.0455  0.0043  0.0072  0.0286 </r>
       </set>
       <set comment="band 15">
        <r>  0.0000  0.0002  0.0010  0.0102  0.0289  0.0153  0.0313  0.0130  0.0039 </r>
       </set>
       <set comment="band 16">
        <r>  0.1509  0.0698  0.0079  0.0013  0.0201  0.0136  0.0002  0.0044  0.0348 </r>
       </set>
       <set comment="band 17">
        <r>  0.0939  0.1346  0.0026  0.0011  0.0009  0.0705  0.0286  0.0032  0.0314 </r>
       </set>
       <set comment="band 18">
        <r>  0.0053  0.0002  0.0397  0.0237  0.0013  0.0076  0.0005  0.0271  0.0661 </r>
       </set>
       <set comment="band 19">
        <r>  0.0117  0.0493  0.0961  0.0008  0.0026  0.0462  0.1162  0.0022  0.0004 </r>
       </set>
       <set comment="band 20">
        <r>  0.0470  0.0186  0.0015  0.0359  0.0308  0.0098  0.0048  0.0053  0.0345 </r>
       </set>
       <set comment="band 21">
        <r>  6.2399  0.0001  0.0000  0.0002  0.0002  0.0001  0.0000  0.0001  0.0001 </r>
       </set>
       <set comment="band 22">
        <r>  0.0004  0.0080  0.0066  0.0019  0.0013  0.0186  0.0095  0.0012  0.0013 </r>
       </set>
       <set comment="band 23">
        <r>  0.0075  0.0001  0.0409  0.0575  0.0235  0.0264  0.0010  0.0197  0.0129 </r>
       </set>
       <set comment="band 24">
        <r>  0.0085  0.0057  0.0398  0.0053  0.0039  0.0013  0.0149  0.0157  0.0277 </r>
       </set>
      </set>
      <set comment="kpoint 108">
       <set comment="band 1">
        <r>  0.0000  0.2822  0.4185  0.2822  0.0000  0.0000  0.0000  0.0000  0.0000 </r>
       </set>
       <set comment="band 2">
        <r>  0.0000  0.2110  0.5692  0.2110  0.0000  0.0000  0.0000  0.0000  0.0000 </r>
       </set>
       <set comment="band 3">
        <r>  0.0000  0.4969  0.0000  0.4969  0.0000  0.0000  0.0000  0.0000  0.0000 </r>
       </set>
       <set comment="band 4">
        <r>  0.0893  0.0014  0.0070  0.0014  0.3377  0.0958  0.0370  0.0958  0.0000 </r>
       </set>
       <set comment="band 5">
        <r>  0.0011  0.0071  0.0004  0.0071  0.0076  0.0633  0.5723  0.0633  0.0000 </r>
       </set>
       <set comment="band 6">
        <r>  0.0069  0.0134  0.0266  0.0134  0.3098  0.1252  0.0349  0.1252  0.0000 </r>
       </set>
       <set comment="band 7">
        <r>  0.0000  0.0016  0.0000  0.0016  0.0000  0.1411  0.0000  0.1411  0.5603 </r>
       </set>
       <set comment="band 8">
        <r>  0.0000  0.0001  0.0000  0.0001  0.0000  0.3179  0.0000  0.3179  0.3087 </r>
       </set>
       <set comment="band 9">
        <r>  0.0007  0.0373  0.0624  0.0373  0.0939  0.0594  0.1753  0.0594  0.0000 </r>
       </set>
       <set comment="band 10">
        <r>  0.3930  0.0041  0.0009  0.0041  0.1121  0.1066  0.0018  0.1066  0.0000 </r>
       </set>
       <set comment="band 11">
        <r>  0.0326  0.0120  0.0959  0.0120  0.0000  0.0322  0.1278  0.0322  0.0000 </r>
       </set>
       <set comment="band 12">
        <r>  0.0000  0.1176  0.0000  0.1176  0.0000  0.0029  0.0000  0.0029  0.0728 </r>
       </set>
       <set comment="band 13">
        <r>  0.0242  0.0301  0.0332  0.0301  0.0871  0.0031  0.0006  0.0031  0.0000 </r>
       </set>
       <set comment="band 14">
        <r>  0.0000  0.0012  0.0000  0.0012  0.0000  0.0489  0.0000  0.0489  0.0912 </r>
       </set>
       <set comment="band 15">
        <r>  0.0007  0.0015  0.0240  0.0015  0.0992  0.0001  0.0841  0.0001  0.0000 </r>
       </set>
       <set comment="band 16">
        <r>  0.1740  0.0308  0.0114  0.0308  0.0013  0.0176  0.0461  0.0176  0.0000 </r>
       </set>
       <set comment="band 17">
        <r>  0.0282  0.0401  0.0133  0.0401  0.0200  0.0263  0.0147  0.0263  0.0000 </r>
       </set>
       <set comment="band 18">
        <r>  0.0235  0.0051  0.0511  0.0051  0.0754  0.0085  0.0691  0.0085  0.0000 </r>
       </set>
       <set comment="band 19">
        <r>  0.0000  0.1648  0.0000  0.1648  0.0000  0.0018  0.0000  0.0018  0.1162 </r>
       </set>
       <set comment="band 20">
        <r>  0.0000  0.0214  0.0000  0.0214  0.0000  0.0181  0.0000  0.0181  0.0139 </r>
       </set>
       <set comment="band 21">
        <r>  6.2894  0.0000  0.0000  0.0000  0.0000  0.0000  0.0000  0.0000  0.0000 </r>
       </set>
       <set comment="band 22">
        <r>  0.0012  0.0030  0.0279  0.0030  0.0570  0.0035  0.0061  0.0035  0.0000 </r>
       </set>
       <set comment="band 23">
        <r>  0.0441  0.0077  0.0254  0.0077  0.0865  0.0206  0.0000  0.0206  0.0000 </r>
       </set>
       <set comment="band 24">
        <r>  0.0000  0.0380  0.0000  0.0380  0.0000  0.0121  0.0000  0.0121  0.0415 </r>
       </set>
      </set>
      <set comment="kpoint 109">
       <set comment="band 1">
        <r>  0.0000  0.3271  0.3271  0.3271  0.0000  0.0000  0.0000  0.0000  0.0000 </r>
       </set>
       <set comment="band 2">
        <r>  0.0000  0.0765  0.5135  0.4049  0.0000  0.0000  0.0000  0.0000  0.0000 </r>
       </set>
       <set comment="band 3">
        <r>  0.0000  0.5868  0.1497  0.2583  0.0000  0.0000  0.0000  0.0000  0.0000 </r>
       </set>
       <set comment="band 4">
        <r>  0.1444  0.0003  0.0003  0.0003  0.1628  0.1628  0.0000  0.1628  0.0000 </r>
       </set>
       <set comment="band 5">
        <r>  0.0000  0.0000  0.0000  0.0000  0.0000  0.1740  0.0000  0.1739  0.4858 </r>
       </set>
       <set comment="band 6">
        <r>  0.0000  0.0000  0.0000  0.0000  0.2319  0.0580  0.4858  0.0580  0.0000 </r>
       </set>
       <set comment="band 7">
        <r>  0.0314  0.0557  0.0557  0.0557  0.0199  0.0199  0.0000  0.0199  0.0000 </r>
       </set>
       <set comment="band 8">
        <r>  0.0000  0.0001  0.0000  0.0001  0.0000  0.2795  0.0000  0.2791  0.3874 </r>
       </set>
       <set comment="band 9">
        <r>  0.0000  0.0000  0.0001  0.0000  0.3724  0.0929  0.3874  0.0933  0.0000 </r>
       </set>
       <set comment="band 10">
        <r>  0.3428  0.0080  0.0080  0.0080  0.1260  0.1260  0.0000  0.1260  0.0000 </r>
       </set>
       <set comment="band 11">
        <r>  0.0005  0.0040  0.0040  0.0040  0.0013  0.0013  0.0000  0.0013  0.0000 </r>
       </set>
       <set comment="band 12">
        <r>  0.0000  0.1085  0.0003  0.1096  0.0000  0.0033  0.0000  0.0033  0.0006 </r>
       </set>
       <set comment="band 13">
        <r>  0.0000  0.0372  0.1453  0.0360  0.0044  0.0011  0.0006  0.0011  0.0000 </r>
       </set>
       <set comment="band 14">
        <r>  0.0000  0.0022  0.0000  0.0023  0.0000  0.0500  0.0000  0.0487  0.2778 </r>
       </set>
       <set comment="band 15">
        <r>  0.0000  0.0008  0.0030  0.0007  0.0658  0.0158  0.2778  0.0171  0.0000 </r>
       </set>
       <set comment="band 16">
        <r>  0.0992  0.0059  0.0059  0.0059  0.0590  0.0590  0.0000  0.0590  0.0000 </r>
       </set>
       <set comment="band 17">
        <r>  0.0000  0.1590  0.0001  0.1683  0.0000  0.0151  0.0000  0.0142  0.0161 </r>
       </set>
       <set comment="band 18">
        <r>  0.0000  0.0593  0.2182  0.0500  0.0196  0.0045  0.0161  0.0053  0.0000 </r>
       </set>
       <set comment="band 19">
        <r>  0.0489  0.0261  0.0261  0.0261  0.0229  0.0229  0.0000  0.0229  0.0000 </r>
       </set>
       <set comment="band 20">
        <r>  6.3031  0.0000  0.0000  0.0000  0.0000  0.0000  0.0000  0.0000  0.0000 </r>
       </set>
       <set comment="band 21">
        <r>  0.0000  0.0156  0.0852  0.0617  0.0328  0.0238  0.0038  0.0060  0.0010 </r>
       </set>
       <set comment="band 22">
        <r>  0.0000  0.0927  0.0231  0.0467  0.0089  0.0180  0.0010  0.0357  0.0038 </r>
       </set>
       <set comment="band 23">
        <r>  0.1799  0.0001  0.0001  0.0001  0.0117  0.0117  0.0000  0.0117  0.0000 </r>
       </set>
       <set comment="band 24">
        <r>  0.0000  0.0010  0.0055  0.0040  0.1373  0.0993  0.0080  0.0251  0.0022 </r>
       </set>
      </set>
      <set comment="kpoint 110">
       <set comment="band 1">
        <r>  0.0000  0.3273  0.3273  0.3269  0.0000  0.0000  0.0000  0.0000  0.0000 </r>
       </set>
       <set comment="band 2">
        <r>  0.0000  0.1655  0.1655  0.6628  0.0000  0.0000  0.0000  0.0000  0.0000 </r>
       </set>
       <set comment="band 3">
        <r>  0.0000  0.4973  0.4973  0.0000  0.0000  0.0000  0.0000  0.0000  0.0000 </r>
       </set>
       <set comment="band 4">
        <r>  0.1273  0.0010  0.0010  0.0021  0.1579  0.1953  0.0001  0.1579  0.0003 </r>
       </set>
       <set comment="band 5">
        <r>  0.0000  0.0011  0.0011  0.0001  0.0557  0.1789  0.1281  0.0557  0.3844 </r>
       </set>
       <set comment="band 6">
        <r>  0.0000  0.0004  0.0004  0.0000  0.1614  0.0000  0.3839  0.1614  0.1280 </r>
       </set>
       <set comment="band 7">
        <r>  0.0011  0.0294  0.0294  0.0298  0.0759  0.1929  0.0304  0.0759  0.0911 </r>
       </set>
       <set comment="band 8">
        <r>  0.0000  0.0001  0.0001  0.0000  0.2938  0.0000  0.2672  0.2938  0.0891 </r>
       </set>
       <set comment="band 9">
        <r>  0.0079  0.0326  0.0326  0.0338  0.0258  0.2244  0.0567  0.0258  0.1701 </r>
       </set>
       <set comment="band 10">
        <r>  0.3776  0.0007  0.0007  0.0047  0.1387  0.1140  0.0008  0.1387  0.0024 </r>
       </set>
       <set comment="band 11">
        <r>  0.0001  0.0014  0.0014  0.0119  0.0061  0.0086  0.0054  0.0061  0.0161 </r>
       </set>
       <set comment="band 12">
        <r>  0.0151  0.0387  0.0387  0.1346  0.0152  0.0075  0.0038  0.0152  0.0113 </r>
       </set>
       <set comment="band 13">
        <r>  0.0000  0.1117  0.1117  0.0000  0.0000  0.0000  0.0226  0.0000  0.0075 </r>
       </set>
       <set comment="band 14">
        <r>  0.0016  0.0001  0.0001  0.0148  0.0012  0.0911  0.0479  0.0012  0.1436 </r>
       </set>
       <set comment="band 15">
        <r>  0.0000  0.0013  0.0013  0.0000  0.0607  0.0000  0.1709  0.0607  0.0570 </r>
       </set>
       <set comment="band 16">
        <r>  0.1300  0.0002  0.0002  0.0020  0.0752  0.0258  0.0019  0.0752  0.0058 </r>
       </set>
       <set comment="band 17">
        <r>  0.0260  0.0813  0.0813  0.0890  0.0007  0.0015  0.0095  0.0007  0.0284 </r>
       </set>
       <set comment="band 18">
        <r>  0.0000  0.1696  0.1696  0.0000  0.0003  0.0000  0.0289  0.0003  0.0096 </r>
       </set>
       <set comment="band 19">
        <r>  0.0284  0.0063  0.0063  0.0929  0.0007  0.0497  0.0090  0.0007  0.0271 </r>
       </set>
       <set comment="band 20">
        <r>  6.2989  0.0000  0.0000  0.0000  0.0000  0.0000  0.0000  0.0000  0.0000 </r>
       </set>
       <set comment="band 21">
        <r>  0.0037  0.0069  0.0069  0.0265  0.0062  0.0724  0.0001  0.0062  0.0002 </r>
       </set>
       <set comment="band 22">
        <r>  0.0000  0.0170  0.0170  0.0000  0.0422  0.0000  0.0051  0.0422  0.0017 </r>
       </set>
       <set comment="band 23">
        <r>  0.0921  0.0025  0.0025  0.0009  0.0046  0.1197  0.0008  0.0046  0.0025 </r>
       </set>
       <set comment="band 24">
        <r>  0.0000  0.0556  0.0556  0.0000  0.0503  0.0000  0.0017  0.0503  0.0006 </r>
       </set>
      </set>
     </set>
    </set>
   </array>
  </projected>
 </calculation>
 <structure name="finalpos" >
  <crystal>
   <varray name="basis" >
    <v>       0.00000000       1.95661249       1.95661249 </v>
    <v>       1.95661249       0.00000000       1.95661249 </v>
    <v>       1.95661249       1.95661249       0.00000000 </v>
   </varray>
   <i name="volume">     14.98112619 </i>
   <varray name="rec_basis" >
    <v>      -0.25554370       0.25554370       0.25554370 </v>
    <v>       0.25554370      -0.25554370       0.25554370 </v>
    <v>       0.25554370       0.25554370      -0.25554370 </v>
   </varray>
  </crystal>
  <varray name="positions" >
   <v>       0.00000000       0.00000000       0.00000000 </v>
  </varray>
 </structure>
</modeling>
