   1   1   0   0
  0.1081089E+02  0.2481945E-09  0.2481945E-09  0.2481945E-09  0.5000000E-15
  1.000000000000000E-004
  CAR 
 Co-fcc                                  
     53.42023980     -0.47072324  301     10.38993577      1.00000000
     -0.471  0.0000E+00  0.0000E+00  0.0000E+00  0.0000E+00
     -0.291  0.0000E+00  0.0000E+00  0.0000E+00  0.0000E+00
     -0.111  0.0000E+00  0.0000E+00  0.0000E+00  0.0000E+00
      0.068  0.0000E+00  0.0000E+00  0.0000E+00  0.0000E+00
      0.248  0.0000E+00  0.0000E+00  0.0000E+00  0.0000E+00
      0.427  0.0000E+00  0.0000E+00  0.0000E+00  0.0000E+00
      0.607  0.0000E+00  0.0000E+00  0.0000E+00  0.0000E+00
      0.787  0.0000E+00  0.0000E+00  0.0000E+00  0.0000E+00
      0.966  0.0000E+00  0.0000E+00  0.0000E+00  0.0000E+00
      1.146  0.0000E+00  0.0000E+00  0.0000E+00  0.0000E+00
      1.326  0.0000E+00  0.0000E+00  0.0000E+00  0.0000E+00
      1.505  0.0000E+00  0.0000E+00  0.0000E+00  0.0000E+00
      1.685  0.9657E-17  0.0000E+00  0.1735E-17  0.0000E+00
      1.865  0.1064E-03  0.9534E-05  0.1912E-04  0.1713E-05
      2.044  0.1682E+00  0.1544E+00  0.3024E-01  0.2773E-01
      2.224  0.5624E-02  0.1959E-01  0.3125E-01  0.3125E-01
      2.403  0.0000E+00  0.0000E+00  0.3125E-01  0.3125E-01
      2.583  0.0000E+00  0.0000E+00  0.3125E-01  0.3125E-01
      2.763  0.0000E+00  0.0000E+00  0.3125E-01  0.3125E-01
      2.942  0.0000E+00  0.0000E+00  0.3125E-01  0.3125E-01
      3.122  0.0000E+00  0.0000E+00  0.3125E-01  0.3125E-01
      3.302  0.2123E-05  0.8196E-10  0.3125E-01  0.3125E-01
      3.481  0.3821E+00  0.5897E-01  0.9989E-01  0.4184E-01
      3.661  0.1398E+00  0.4629E+00  0.1250E+00  0.1250E+00
      3.841  0.3122E-08  0.2839E-04  0.1250E+00  0.1250E+00
      4.020  0.0000E+00  0.0000E+00  0.1250E+00  0.1250E+00
      4.200  0.0000E+00  0.0000E+00  0.1250E+00  0.1250E+00
      4.379  0.6287E-11  0.0000E+00  0.1250E+00  0.1250E+00
      4.559  0.2872E-01  0.1060E-12  0.1302E+00  0.1250E+00
      4.739  0.4930E+00  0.7779E-02  0.2187E+00  0.1264E+00
      4.918  0.6412E-01  0.5132E+00  0.2302E+00  0.2186E+00
      5.098  0.1101E+00  0.9483E-03  0.2500E+00  0.2187E+00
      5.278  0.5291E+00  0.2747E-12  0.3451E+00  0.2188E+00
      5.457  0.6989E+00  0.5115E-02  0.4706E+00  0.2197E+00
      5.637  0.3376E+00  0.1690E+00  0.5312E+00  0.2500E+00
      5.817  0.6745E-01  0.5032E+00  0.5434E+00  0.3404E+00
      5.996  0.2139E+01  0.1849E-01  0.9276E+00  0.3437E+00
      6.176  0.5739E+00  0.9300E-13  0.1031E+01  0.3438E+00
      6.355  0.5662E+00  0.7440E-02  0.1132E+01  0.3451E+00
      6.535  0.1347E+01  0.9348E+00  0.1374E+01  0.5130E+00
      6.715  0.4923E+00  0.1145E+01  0.1463E+01  0.7187E+00
      6.894  0.1051E+01  0.5492E-03  0.1652E+01  0.7188E+00
      7.074  0.5079E+00  0.6302E-05  0.1743E+01  0.7188E+00
      7.254  0.1508E+01  0.8042E+00  0.2014E+01  0.8632E+00
      7.433  0.6773E+00  0.1283E+01  0.2135E+01  0.1094E+01
      7.613  0.1965E+01  0.6556E-02  0.2489E+01  0.1095E+01
      7.793  0.1243E+01  0.1509E+01  0.2712E+01  0.1366E+01
      7.972  0.1466E+01  0.2438E+00  0.2975E+01  0.1410E+01
      8.152  0.9438E+00  0.1223E+01  0.3145E+01  0.1629E+01
      8.331  0.1389E+01  0.1491E+00  0.3394E+01  0.1656E+01
      8.511  0.7702E+00  0.6448E+00  0.3532E+01  0.1772E+01
      8.691  0.1796E+01  0.5546E+00  0.3855E+01  0.1872E+01
      8.870  0.1164E+01  0.2520E+01  0.4064E+01  0.2324E+01
      9.050  0.9988E+00  0.6161E+00  0.4244E+01  0.2435E+01
      9.230  0.6522E+00  0.2002E+00  0.4361E+01  0.2471E+01
      9.409  0.1878E+01  0.1807E+01  0.4698E+01  0.2796E+01
      9.589  0.6819E+00  0.1051E+01  0.4821E+01  0.2984E+01
      9.769  0.2270E+01  0.9859E+00  0.5229E+01  0.3161E+01
      9.948  0.5265E+00  0.4929E+00  0.5323E+01  0.3250E+01
     10.128  0.1149E+00  0.3634E+00  0.5344E+01  0.3315E+01
     10.307  0.1265E-08  0.1321E+01  0.5344E+01  0.3553E+01
     10.487  0.0000E+00  0.1290E+01  0.5344E+01  0.3784E+01
     10.667  0.0000E+00  0.1536E+01  0.5344E+01  0.4060E+01
     10.846  0.0000E+00  0.5347E+00  0.5344E+01  0.4156E+01
     11.026  0.0000E+00  0.3888E+00  0.5344E+01  0.4226E+01
     11.206  0.0000E+00  0.1574E+01  0.5344E+01  0.4509E+01
     11.385  0.1891E-06  0.1035E+01  0.5344E+01  0.4695E+01
     11.565  0.5220E+00  0.2113E+01  0.5438E+01  0.5074E+01
     11.745  0.1041E+01  0.1491E+01  0.5624E+01  0.5342E+01
     11.924  0.2813E-02  0.8175E-02  0.5625E+01  0.5344E+01
     12.104  0.0000E+00  0.0000E+00  0.5625E+01  0.5344E+01
     12.283  0.0000E+00  0.0000E+00  0.5625E+01  0.5344E+01
     12.463  0.0000E+00  0.2636E-14  0.5625E+01  0.5344E+01
     12.643  0.0000E+00  0.2060E-02  0.5625E+01  0.5344E+01
     12.822  0.3207E-09  0.5160E+00  0.5625E+01  0.5437E+01
     13.002  0.8337E-01  0.9745E+00  0.5640E+01  0.5612E+01
     13.182  0.4385E+00  0.7315E-01  0.5719E+01  0.5625E+01
     13.361  0.1148E-04  0.0000E+00  0.5719E+01  0.5625E+01
     13.541  0.0000E+00  0.3006E-08  0.5719E+01  0.5625E+01
     13.721  0.0000E+00  0.1387E+00  0.5719E+01  0.5650E+01
     13.900  0.1802E-05  0.3832E+00  0.5719E+01  0.5719E+01
     14.080  0.3760E+00  0.2188E-05  0.5786E+01  0.5719E+01
     14.259  0.1459E+00  0.0000E+00  0.5812E+01  0.5719E+01
     14.439  0.3831E-08  0.0000E+00  0.5812E+01  0.5719E+01
     14.619  0.0000E+00  0.0000E+00  0.5812E+01  0.5719E+01
     14.798  0.0000E+00  0.8745E-07  0.5812E+01  0.5719E+01
     14.978  0.0000E+00  0.2564E+00  0.5812E+01  0.5765E+01
     15.158  0.4436E-09  0.2654E+00  0.5813E+01  0.5812E+01
     15.337  0.1522E+00  0.1098E-06  0.5840E+01  0.5812E+01
     15.517  0.8915E+00  0.0000E+00  0.6000E+01  0.5812E+01
     15.697  0.2955E-04  0.0000E+00  0.6000E+01  0.5812E+01
     15.876  0.0000E+00  0.4574E-12  0.6000E+01  0.5813E+01
     16.056  0.0000E+00  0.2018E-01  0.6000E+01  0.5816E+01
     16.235  0.0000E+00  0.1022E+01  0.6000E+01  0.6000E+01
     16.415  0.0000E+00  0.1349E-02  0.6000E+01  0.6000E+01
     16.595  0.0000E+00  0.0000E+00  0.6000E+01  0.6000E+01
     16.774  0.0000E+00  0.0000E+00  0.6000E+01  0.6000E+01
     16.954  0.1256E-05  0.0000E+00  0.6000E+01  0.6000E+01
     17.134  0.3624E+00  0.0000E+00  0.6065E+01  0.6000E+01
     17.313  0.1595E+00  0.0000E+00  0.6094E+01  0.6000E+01
     17.493  0.5957E-08  0.0000E+00  0.6094E+01  0.6000E+01
     17.673  0.1118E-01  0.0000E+00  0.6096E+01  0.6000E+01
     17.852  0.5101E+00  0.7487E-07  0.6187E+01  0.6000E+01
     18.032  0.5858E-03  0.2503E+00  0.6188E+01  0.6045E+01
     18.211  0.0000E+00  0.2715E+00  0.6188E+01  0.6094E+01
     18.391  0.0000E+00  0.7182E-03  0.6188E+01  0.6094E+01
     18.571  0.3290E-05  0.5115E+00  0.6188E+01  0.6186E+01
     18.750  0.7452E+00  0.9632E-02  0.6321E+01  0.6187E+01
     18.930  0.2986E+00  0.0000E+00  0.6375E+01  0.6188E+01
     19.110  0.8579E-08  0.2314E-08  0.6375E+01  0.6188E+01
     19.289  0.4977E-13  0.2253E+00  0.6375E+01  0.6228E+01
     19.469  0.2914E-02  0.8185E+00  0.6376E+01  0.6375E+01
     19.649  0.1708E+00  0.9132E-05  0.6406E+01  0.6375E+01
     19.828  0.2721E-03  0.0000E+00  0.6406E+01  0.6375E+01
     20.008  0.0000E+00  0.7540E-13  0.6406E+01  0.6375E+01
     20.187  0.0000E+00  0.3351E-02  0.6406E+01  0.6376E+01
     20.367  0.1099E-06  0.1704E+00  0.6406E+01  0.6406E+01
     20.547  0.4766E+00  0.2260E-03  0.6492E+01  0.6406E+01
     20.726  0.5671E+00  0.0000E+00  0.6594E+01  0.6406E+01
     20.906  0.3459E-06  0.7533E-11  0.6594E+01  0.6406E+01
     21.086  0.0000E+00  0.4927E-01  0.6594E+01  0.6415E+01
     21.265  0.1038E-03  0.9942E+00  0.6594E+01  0.6594E+01
     21.445  0.4895E+00  0.3411E-03  0.6682E+01  0.6594E+01
     21.625  0.3229E-01  0.0000E+00  0.6687E+01  0.6594E+01
     21.804  0.0000E+00  0.2318E-15  0.6688E+01  0.6594E+01
     21.984  0.0000E+00  0.7853E-03  0.6688E+01  0.6594E+01
     22.163  0.3909E-12  0.5121E+00  0.6688E+01  0.6686E+01
     22.343  0.1914E-01  0.9004E-02  0.6691E+01  0.6687E+01
     22.523  0.1023E+01  0.0000E+00  0.6875E+01  0.6688E+01
     22.702  0.4029E-01  0.1159E-15  0.6882E+01  0.6688E+01
     22.882  0.4830E+00  0.9112E-03  0.6969E+01  0.6688E+01
     23.062  0.7189E-04  0.1031E+01  0.6969E+01  0.6873E+01
     23.241  0.1217E-14  0.5336E+00  0.6969E+01  0.6969E+01
     23.421  0.1538E-02  0.3996E-03  0.6969E+01  0.6969E+01
     23.601  0.6435E+00  0.0000E+00  0.7085E+01  0.6969E+01
     23.780  0.3987E+00  0.3307E-11  0.7156E+01  0.6969E+01
     23.960  0.2907E-05  0.2369E-01  0.7156E+01  0.6973E+01
     24.139  0.0000E+00  0.9346E+00  0.7156E+01  0.7141E+01
     24.319  0.1039E-05  0.8549E-01  0.7156E+01  0.7156E+01
     24.499  0.3550E+00  0.3525E-09  0.7220E+01  0.7156E+01
     24.678  0.3401E+00  0.4023E-09  0.7281E+01  0.7156E+01
     24.858  0.8705E+00  0.8807E-01  0.7437E+01  0.7172E+01
     25.038  0.2060E-04  0.4521E+00  0.7438E+01  0.7253E+01
     25.217  0.0000E+00  0.1024E+01  0.7438E+01  0.7437E+01
     25.397  0.0000E+00  0.1535E-02  0.7438E+01  0.7438E+01
     25.577  0.0000E+00  0.0000E+00  0.7438E+01  0.7438E+01
     25.756  0.1524E-13  0.0000E+00  0.7438E+01  0.7438E+01
     25.936  0.6104E-02  0.0000E+00  0.7439E+01  0.7438E+01
     26.115  0.1032E+01  0.7822E-14  0.7624E+01  0.7438E+01
     26.295  0.4018E+00  0.4771E-02  0.7696E+01  0.7438E+01
     26.475  0.1256E+00  0.1165E+01  0.7719E+01  0.7648E+01
     26.654  0.1891E-08  0.3960E+00  0.7719E+01  0.7719E+01
     26.834  0.0000E+00  0.2567E-05  0.7719E+01  0.7719E+01
     27.014  0.0000E+00  0.0000E+00  0.7719E+01  0.7719E+01
     27.193  0.0000E+00  0.0000E+00  0.7719E+01  0.7719E+01
     27.373  0.1815E-05  0.0000E+00  0.7719E+01  0.7719E+01
     27.553  0.3763E+00  0.0000E+00  0.7786E+01  0.7719E+01
     27.732  0.5963E+00  0.3085E-05  0.7893E+01  0.7719E+01
     27.912  0.7115E-01  0.3958E+00  0.7906E+01  0.7790E+01
     28.091  0.1696E-09  0.6244E+00  0.7906E+01  0.7902E+01
     28.271  0.2897E-16  0.2357E-01  0.7906E+01  0.7906E+01
     28.451  0.3676E-03  0.0000E+00  0.7906E+01  0.7906E+01
     28.630  0.5061E+00  0.1825E-11  0.7997E+01  0.7906E+01
     28.810  0.1660E+00  0.1972E-01  0.8027E+01  0.7910E+01
     28.990  0.3713E+00  0.5023E+00  0.8094E+01  0.8000E+01
     29.169  0.3822E+00  0.5067E+00  0.8162E+01  0.8091E+01
     29.349  0.6616E+00  0.1504E-01  0.8281E+01  0.8094E+01
     29.529  0.1159E-05  0.6606E+00  0.8281E+01  0.8212E+01
     29.708  0.2236E+00  0.3834E+00  0.8321E+01  0.8281E+01
     29.888  0.2983E+00  0.5011E+00  0.8375E+01  0.8371E+01
     30.067  0.2495E-06  0.2057E-01  0.8375E+01  0.8375E+01
     30.247  0.0000E+00  0.0000E+00  0.8375E+01  0.8375E+01
     30.427  0.6017E-05  0.0000E+00  0.8375E+01  0.8375E+01
     30.606  0.4184E+00  0.0000E+00  0.8450E+01  0.8375E+01
     30.786  0.1035E+00  0.1513E-04  0.8469E+01  0.8375E+01
     30.966  0.8141E-09  0.4464E+00  0.8469E+01  0.8455E+01
     31.145  0.1747E-01  0.7544E-01  0.8472E+01  0.8469E+01
     31.325  0.1565E+00  0.9438E-01  0.8500E+01  0.8486E+01
     31.505  0.3444E-03  0.7958E-01  0.8500E+01  0.8500E+01
     31.684  0.5051E+00  0.1852E-07  0.8591E+01  0.8500E+01
     31.864  0.1646E-01  0.6516E-03  0.8594E+01  0.8500E+01
     32.043  0.1431E-09  0.5109E+00  0.8594E+01  0.8592E+01
     32.223  0.6848E-01  0.3909E-01  0.8606E+01  0.8599E+01
     32.403  0.9758E+00  0.1462E+00  0.8781E+01  0.8625E+01
     32.582  0.1141E+01  0.7013E+00  0.8986E+01  0.8751E+01
     32.762  0.2752E+00  0.8790E+00  0.9036E+01  0.8909E+01
     32.942  0.3234E+00  0.9150E+00  0.9094E+01  0.9073E+01
     33.121  0.4670E-06  0.1131E+00  0.9094E+01  0.9094E+01
     33.301  0.1165E+00  0.1910E-08  0.9115E+01  0.9094E+01
     33.481  0.4054E+00  0.1020E+00  0.9187E+01  0.9112E+01
     33.660  0.4081E-05  0.4199E+00  0.9188E+01  0.9187E+01
     33.840  0.0000E+00  0.6303E-05  0.9188E+01  0.9188E+01
     34.019  0.0000E+00  0.0000E+00  0.9188E+01  0.9188E+01
     34.199  0.0000E+00  0.0000E+00  0.9188E+01  0.9188E+01
     34.379  0.0000E+00  0.3590E-09  0.9188E+01  0.9188E+01
     34.558  0.7821E-07  0.3695E-01  0.9188E+01  0.9194E+01
     34.738  0.9861E-01  0.1370E+00  0.9205E+01  0.9219E+01
     34.918  0.7535E-01  0.1605E-05  0.9219E+01  0.9219E+01
     35.097  0.1328E-07  0.0000E+00  0.9219E+01  0.9219E+01
     35.277  0.1087E-09  0.5456E-08  0.9219E+01  0.9219E+01
     35.457  0.7435E-01  0.1567E+00  0.9232E+01  0.9247E+01
     35.636  0.7952E+00  0.3651E+00  0.9375E+01  0.9312E+01
     35.816  0.1486E-02  0.8257E-02  0.9375E+01  0.9314E+01
     35.995  0.1347E+01  0.3551E+00  0.9617E+01  0.9378E+01
     36.175  0.2170E+00  0.1299E+01  0.9656E+01  0.9611E+01
     36.355  0.5284E-05  0.2515E+00  0.9656E+01  0.9656E+01
     36.534  0.7801E+00  0.7207E-03  0.9796E+01  0.9656E+01
     36.714  0.2637E+00  0.1012E+01  0.9844E+01  0.9838E+01
     36.894  0.4867E+00  0.3121E-01  0.9931E+01  0.9844E+01
     37.073  0.3533E+00  0.1034E-06  0.9995E+01  0.9844E+01
     37.253  0.3023E-01  0.2938E+00  0.1000E+02  0.9897E+01
     37.433  0.5096E+00  0.5760E+00  0.1009E+02  0.1000E+02
     37.612  0.1176E-01  0.1019E-01  0.1009E+02  0.1000E+02
     37.792  0.1009E-01  0.5111E+00  0.1010E+02  0.1009E+02
     37.971  0.5111E+00  0.6688E-03  0.1019E+02  0.1009E+02
     38.151  0.6747E-03  0.2858E-05  0.1019E+02  0.1009E+02
     38.331  0.0000E+00  0.3929E+00  0.1019E+02  0.1016E+02
     38.510  0.0000E+00  0.1290E+00  0.1019E+02  0.1019E+02
     38.690  0.3554E-11  0.2140E-08  0.1019E+02  0.1019E+02
     38.870  0.1823E-01  0.0000E+00  0.1019E+02  0.1019E+02
     39.049  0.3296E+00  0.7846E-05  0.1025E+02  0.1019E+02
     39.229  0.9437E-04  0.2928E+00  0.1025E+02  0.1024E+02
     39.409  0.0000E+00  0.5510E-01  0.1025E+02  0.1025E+02
     39.588  0.6953E-15  0.2063E-09  0.1025E+02  0.1025E+02
     39.768  0.1227E-02  0.2347E-03  0.1025E+02  0.1025E+02
     39.947  0.5143E+00  0.5012E+00  0.1034E+02  0.1034E+02
     40.127  0.6788E-01  0.2043E-01  0.1035E+02  0.1034E+02
     40.307  0.9977E+00  0.2135E+00  0.1053E+02  0.1038E+02
     40.486  0.7102E+00  0.8303E+00  0.1066E+02  0.1053E+02
     40.666  0.3181E+00  0.7500E-01  0.1072E+02  0.1054E+02
     40.846  0.4047E-06  0.4469E+00  0.1072E+02  0.1062E+02
     41.025  0.0000E+00  0.3468E-01  0.1072E+02  0.1063E+02
     41.205  0.0000E+00  0.4871E+00  0.1072E+02  0.1072E+02
     41.385  0.1706E-03  0.9040E-04  0.1072E+02  0.1072E+02
     41.564  0.9683E+00  0.3219E-02  0.1089E+02  0.1072E+02
     41.744  0.7527E-01  0.6762E+00  0.1091E+02  0.1084E+02
     41.924  0.1388E+00  0.5382E+00  0.1093E+02  0.1094E+02
     42.103  0.3520E-01  0.1157E-03  0.1094E+02  0.1094E+02
     42.283  0.2395E+00  0.1079E-06  0.1098E+02  0.1094E+02
     42.462  0.9782E+00  0.1160E+00  0.1116E+02  0.1096E+02
     42.642  0.2508E-04  0.1099E+01  0.1116E+02  0.1116E+02
     42.822  0.0000E+00  0.2357E-02  0.1116E+02  0.1116E+02
     43.001  0.3196E-09  0.0000E+00  0.1116E+02  0.1116E+02
     43.181  0.8330E-01  0.1131E-04  0.1117E+02  0.1116E+02
     43.361  0.4386E+00  0.4381E+00  0.1125E+02  0.1123E+02
     43.540  0.1151E-04  0.8380E-01  0.1125E+02  0.1125E+02
     43.720  0.0000E+00  0.3277E-09  0.1125E+02  0.1125E+02
     43.900  0.0000E+00  0.0000E+00  0.1125E+02  0.1125E+02
     44.079  0.0000E+00  0.0000E+00  0.1125E+02  0.1125E+02
     44.259  0.9200E-05  0.0000E+00  0.1125E+02  0.1125E+02
     44.438  0.8190E+00  0.0000E+00  0.1140E+02  0.1125E+02
     44.618  0.2320E+00  0.1847E-05  0.1144E+02  0.1125E+02
     44.798  0.1032E+01  0.7009E+00  0.1162E+02  0.1138E+02
     44.977  0.7746E+00  0.5132E+00  0.1176E+02  0.1147E+02
     45.157  0.2737E+00  0.7365E+00  0.1181E+02  0.1160E+02
     45.337  0.5791E-08  0.1052E+01  0.1181E+02  0.1179E+02
     45.516  0.0000E+00  0.1285E+00  0.1181E+02  0.1181E+02
     45.696  0.0000E+00  0.0000E+00  0.1181E+02  0.1181E+02
     45.876  0.0000E+00  0.0000E+00  0.1181E+02  0.1181E+02
     46.055  0.0000E+00  0.0000E+00  0.1181E+02  0.1181E+02
     46.235  0.0000E+00  0.0000E+00  0.1181E+02  0.1181E+02
     46.414  0.0000E+00  0.0000E+00  0.1181E+02  0.1181E+02
     46.594  0.0000E+00  0.0000E+00  0.1181E+02  0.1181E+02
     46.774  0.2305E-12  0.0000E+00  0.1181E+02  0.1181E+02
     46.953  0.1012E-01  0.0000E+00  0.1181E+02  0.1181E+02
     47.133  0.5116E+00  0.0000E+00  0.1191E+02  0.1181E+02
     47.313  0.5103E+00  0.0000E+00  0.1200E+02  0.1181E+02
     47.492  0.1173E-01  0.0000E+00  0.1200E+02  0.1181E+02
     47.672  0.0000E+00  0.0000E+00  0.1200E+02  0.1181E+02
     47.852  0.0000E+00  0.0000E+00  0.1200E+02  0.1181E+02
     48.031  0.0000E+00  0.0000E+00  0.1200E+02  0.1181E+02
     48.211  0.0000E+00  0.2639E-04  0.1200E+02  0.1181E+02
     48.390  0.0000E+00  0.4611E+00  0.1200E+02  0.1190E+02
     48.570  0.0000E+00  0.6076E-01  0.1200E+02  0.1191E+02
     48.750  0.0000E+00  0.0000E+00  0.1200E+02  0.1191E+02
     48.929  0.0000E+00  0.0000E+00  0.1200E+02  0.1191E+02
     49.109  0.0000E+00  0.0000E+00  0.1200E+02  0.1191E+02
     49.289  0.0000E+00  0.0000E+00  0.1200E+02  0.1191E+02
     49.468  0.0000E+00  0.0000E+00  0.1200E+02  0.1191E+02
     49.648  0.0000E+00  0.0000E+00  0.1200E+02  0.1191E+02
     49.828  0.0000E+00  0.0000E+00  0.1200E+02  0.1191E+02
     50.007  0.0000E+00  0.0000E+00  0.1200E+02  0.1191E+02
     50.187  0.0000E+00  0.0000E+00  0.1200E+02  0.1191E+02
     50.366  0.0000E+00  0.0000E+00  0.1200E+02  0.1191E+02
     50.546  0.0000E+00  0.0000E+00  0.1200E+02  0.1191E+02
     50.726  0.0000E+00  0.1110E-11  0.1200E+02  0.1191E+02
     50.905  0.0000E+00  0.1687E-01  0.1200E+02  0.1191E+02
     51.085  0.0000E+00  0.5047E+00  0.1200E+02  0.1200E+02
     51.265  0.0000E+00  0.3193E-03  0.1200E+02  0.1200E+02
     51.444  0.0000E+00  0.0000E+00  0.1200E+02  0.1200E+02
     51.624  0.0000E+00  0.0000E+00  0.1200E+02  0.1200E+02
     51.804  0.0000E+00  0.0000E+00  0.1200E+02  0.1200E+02
     51.983  0.0000E+00  0.0000E+00  0.1200E+02  0.1200E+02
     52.163  0.0000E+00  0.0000E+00  0.1200E+02  0.1200E+02
     52.342  0.0000E+00  0.0000E+00  0.1200E+02  0.1200E+02
     52.522  0.0000E+00  0.0000E+00  0.1200E+02  0.1200E+02
     52.702  0.0000E+00  0.0000E+00  0.1200E+02  0.1200E+02
     52.881  0.0000E+00  0.0000E+00  0.1200E+02  0.1200E+02
     53.061  0.0000E+00  0.0000E+00  0.1200E+02  0.1200E+02
     53.241  0.0000E+00  0.0000E+00  0.1200E+02  0.1200E+02
     53.420  0.0000E+00  0.0000E+00  0.1200E+02  0.1200E+02
