    1    1    1    2
  0.1081089E+02  0.2481945E-09  0.2481945E-09  0.2481945E-09  0.5000000E-15
  1.000000000000000E-004
  CAR 
 Co-fcc                                  
      9     10     12
 
  0.1250000E+00  0.1250000E+00  0.1250000E+00  0.3125000E-01
      1          1.978866        2.001316   1.000000   1.000000
      2          7.477922        9.068243   1.000000   1.000000
      3          7.762269        9.422939   1.000000   1.000000
      4          7.762269        9.422939   1.000000   1.000000
      5          8.651387       10.648614   1.000000   0.000000
      6          8.651387       10.648614   1.000000   0.000000
      7         31.190532       31.321168   0.000000   0.000000
      8         34.732087       34.586620   0.000000   0.000000
      9         37.024872       37.300704   0.000000   0.000000
     10         37.024872       37.300704   0.000000   0.000000
     11         41.894037       41.809909   0.000000   0.000000
     12         42.287501       42.454215   0.000000   0.000000
 
  0.3750000E+00  0.1250000E+00  0.1250000E+00  0.9375000E-01
      1          4.615594        4.815549   1.000000   1.000000
      2          7.136602        8.474266   1.000000   1.000000
      3          7.630102        9.321287   1.000000   1.000000
      4          7.957759        9.748713   1.000000   1.000000
      5          8.667483       10.527121   1.000000   0.000052
      6          9.720044       11.581471   1.000000   0.000000
      7         23.518292       24.019648   0.000000   0.000000
      8         28.829749       29.102182   0.000000   0.000000
      9         35.497873       35.475091   0.000000   0.000000
     10         37.361731       37.685235   0.000000   0.000000
     11         39.867801       39.885250   0.000000   0.000000
     12         40.373197       40.703660   0.000000   0.000000
 
 -0.3750000E+00  0.1250000E+00  0.1250000E+00  0.9375000E-01
      1          5.470590        6.432904   1.000000   1.000000
      2          7.218266        8.712709   1.000000   1.000000
      3          7.773167        9.302189   1.000000   1.000000
      4          8.179067        9.542388   1.000000   1.000000
      5          9.600389       11.570410   1.000000   0.000000
      6         11.654414       12.736666   0.000000   0.000000
      7         17.115691       18.033642   0.000000   0.000000
      8         29.714595       29.825717   0.000000   0.000000
      9         32.262856       32.607896   0.000000   0.000000
     10         33.327867       33.510930   0.000000   0.000000
     11         41.508592       41.652700   0.000000   0.000000
     12         41.516038       41.762768   0.000000   0.000000
 
 -0.1250000E+00  0.1250000E+00  0.1250000E+00  0.9375000E-01
      1          3.459383        3.524088   1.000000   1.000000
      2          7.031342        8.521508   1.000000   1.000000
      3          7.869262        9.611600   1.000000   1.000000
      4          8.070782        9.782863   1.000000   1.000000
      5          8.589543       10.400182   1.000000   0.385982
      6          8.996671       11.003128   1.000000   0.000000
      7         27.531865       27.887100   0.000000   0.000000
      8         32.468098       32.504986   0.000000   0.000000
      9         32.535601       32.828563   0.000000   0.000000
     10         35.915775       36.061916   0.000000   0.000000
     11         40.496178       41.078459   0.000000   0.000000
     12         43.216173       43.325518   0.000000   0.000000
 
  0.3750000E+00  0.3750000E+00  0.1250000E+00  0.9375000E-01
      1          5.221959        5.752694   1.000000   1.000000
      2          6.365127        7.744388   1.000000   1.000000
      3          7.949242        9.396019   1.000000   1.000000
      4          8.655611       10.480203   1.000000   0.005338
      5          9.445958       11.443616   1.000000   0.000000
      6          9.920920       11.452033   1.000000   0.000000
      7         24.482191       24.891938   0.000000   0.000000
      8         27.693431       28.031604   0.000000   0.000000
      9         28.563646       28.872857   0.000000   0.000000
     10         32.337018       32.623147   0.000000   0.000000
     11         37.864966       38.306608   0.000000   0.000000
     12         47.026392       48.348236   0.000000   0.000000
 
 -0.3750000E+00  0.3750000E+00  0.1250000E+00  0.1875000E+00
      1          5.985618        7.271326   1.000000   1.000000
      2          6.437445        7.701319   1.000000   1.000000
      3          7.553854        8.864005   1.000000   1.000000
      4          8.727773       10.658784   1.000000   0.000000
      5          9.658930       11.548013   1.000000   0.000000
      6         15.374571       16.128944   0.000000   0.000000
      7         18.730413       19.317095   0.000000   0.000000
      8         22.416985       22.992702   0.000000   0.000000
      9         24.712699       25.112164   0.000000   0.000000
     10         35.965980       36.150225   0.000000   0.000000
     11         42.318672       42.541649   0.000000   0.000000
     12         44.410556       44.781982   0.000000   0.000000
 
 -0.1250000E+00  0.3750000E+00  0.1250000E+00  0.1875000E+00
      1          5.870846        6.598910   1.000000   1.000000
      2          6.824644        8.114077   1.000000   1.000000
      3          7.254865        8.768157   1.000000   1.000000
      4          8.330528       10.148118   1.000000   1.000000
      5          9.257093       11.128939   1.000000   0.000000
      6         11.565168       12.949863   0.000000   0.000000
      7         20.550603       21.144797   0.000000   0.000000
      8         26.024985       26.387281   0.000000   0.000000
      9         29.181401       29.516579   0.000000   0.000000
     10         36.510847       36.647492   0.000000   0.000000
     11         40.182408       40.335960   0.000000   0.000000
     12         44.705074       45.295593   0.000000   0.000000
 
 -0.3750000E+00 -0.3750000E+00  0.1250000E+00  0.9375000E-01
      1          5.329382        6.512755   1.000000   1.000000
      2          5.908664        7.223319   1.000000   1.000000
      3          8.943668       10.334376   1.000000   0.941962
      4          9.206558       11.210041   1.000000   0.000000
      5          9.730703       11.668444   1.000000   0.000000
      6         13.037215       13.742689   0.000000   0.000000
      7         21.390515       22.088736   0.000000   0.000000
      8         22.753430       23.129272   0.000000   0.000000
      9         26.270223       26.498099   0.000000   0.000000
     10         31.618505       31.970758   0.000000   0.000000
     11         36.840775       37.252594   0.000000   0.000000
     12         47.241702       50.970651   0.000000   0.000000
 
  0.3750000E+00  0.3750000E+00  0.3750000E+00  0.3125000E-01
      1          4.930309        5.524091   1.000000   1.000000
      2          7.613964        9.039113   1.000000   1.000000
      3          7.613964        9.359155   1.000000   1.000000
      4          8.396028        9.359155   1.000000   1.000000
      5          9.338479       11.287365   1.000000   0.000000
      6          9.338479       11.287365   1.000000   0.000000
      7         19.544101       20.260639   0.000000   0.000000
      8         32.547287       32.257537   0.000000   0.000000
      9         35.522299       35.885941   0.000000   0.000000
     10         35.522299       35.885941   0.000000   0.000000
     11         38.927027       39.193554   0.000000   0.000000
     12         38.927027       39.193554   0.000000   0.000000
 
 -0.3750000E+00  0.3750000E+00  0.3750000E+00  0.9375000E-01
      1          6.191594        7.295292   1.000000   1.000000
      2          6.660977        7.983869   1.000000   1.000000
      3          7.483837        8.790260   1.000000   1.000000
      4          8.296586       10.167632   1.000000   1.000000
      5          9.337106       11.220831   1.000000   0.000000
      6         14.059177       14.978785   0.000000   0.000000
      7         17.744167       18.496974   0.000000   0.000000
      8         23.624868       24.104823   0.000000   0.000000
      9         30.576422       30.928192   0.000000   0.000000
     10         32.772802       32.913905   0.000000   0.000000
     11         44.953342       44.993234   0.000000   0.000000
     12         44.956260       45.134497   0.000000   0.000000
