<?xml version="1.0" encoding="ISO-8859-1"?>
<modeling>
 <generator>
  <i name="program" type="string">vasp </i>
  <i name="version" type="string">6.3.2  </i>
  <i name="subversion" type="string">27Jun22 (build Aug 12 2022 00:53:59) complex                          parallel </i>
  <i name="platform" type="string">tv2STD </i>
  <i name="date" type="string">2024 11 30 </i>
  <i name="time" type="string">15:14:38 </i>
 </generator>
 <incar>
  <i type="string" name="SYSTEM">Co-fcc</i>
  <i type="int" name="ISTART">     0</i>
  <i type="string" name="PREC">Accurate      normal | accurate</i>
  <i type="string" name="ALGO">Normal     Normal, Fast, Very_Fast</i>
  <i type="logical" name="ADDGRID"> F  </i>
  <i type="int" name="ISPIN">     2</i>
  <i type="int" name="ICHARG">     2</i>
  <i type="int" name="INIWAV">     1</i>
  <i type="int" name="NELM">   100</i>
  <i type="int" name="IBRION">    -1</i>
  <i name="EDIFF">      0.00000100</i>
  <i name="EDIFFG">     -0.02000000</i>
  <i type="int" name="NSW">     0</i>
  <i type="int" name="ISIF">     2</i>
  <i type="int" name="ISYM">     1</i>
  <i name="ENCUT">    400.00000000</i>
  <v name="MAGMOM">      3.00000000</v>
  <i type="logical" name="LREAL"> F  </i>
  <i type="int" name="ISMEAR">     0</i>
  <i name="SIGMA">      0.05000000</i>
  <i type="int" name="NWRITE">     2</i>
  <i type="logical" name="LWAVE"> F  </i>
  <i type="logical" name="LCHARG"> F  </i>
 </incar>
 <primitive_cell>
  <structure name="primitive_cell" >
   <crystal>
    <varray name="basis" >
     <v>       0.00000000       1.75500000       1.75500000 </v>
     <v>       1.75500000       0.00000000       1.75500000 </v>
     <v>       1.75500000       1.75500000       0.00000000 </v>
    </varray>
    <i name="volume">     10.81088775 </i>
    <varray name="rec_basis" >
     <v>      -0.28490028       0.28490028       0.28490028 </v>
     <v>       0.28490028      -0.28490028       0.28490028 </v>
     <v>       0.28490028       0.28490028      -0.28490028 </v>
    </varray>
   </crystal>
   <varray name="positions" >
    <v>       0.00000000       0.00000000       0.00000000 </v>
   </varray>
  </structure>
  <varray name="primitive_index" >
   <v type="int" >        1 </v>
  </varray>
 </primitive_cell>
 <kpoints>
  <generation param="Monkhorst-Pack">
   <v type="int" name="divisions">       4        4        4 </v>
   <v name="usershift">      0.00000000       0.00000000       0.00000000 </v>
   <v name="genvec1">      0.25000000       0.00000000       0.00000000 </v>
   <v name="genvec2">      0.00000000       0.25000000       0.00000000 </v>
   <v name="genvec3">      0.00000000       0.00000000       0.25000000 </v>
   <v name="shift">      0.50000000       0.50000000       0.50000000 </v>
  </generation>
  <varray name="kpointlist" >
   <v>       0.12500000       0.12500000       0.12500000 </v>
   <v>       0.37500000       0.12500000       0.12500000 </v>
   <v>      -0.37500000       0.12500000       0.12500000 </v>
   <v>      -0.12500000       0.12500000       0.12500000 </v>
   <v>       0.37500000       0.37500000       0.12500000 </v>
   <v>      -0.37500000       0.37500000       0.12500000 </v>
   <v>      -0.12500000       0.37500000       0.12500000 </v>
   <v>      -0.37500000      -0.37500000       0.12500000 </v>
   <v>       0.37500000       0.37500000       0.37500000 </v>
   <v>      -0.37500000       0.37500000       0.37500000 </v>
  </varray>
  <varray name="weights" >
   <v>       0.03125000 </v>
   <v>       0.09375000 </v>
   <v>       0.09375000 </v>
   <v>       0.09375000 </v>
   <v>       0.09375000 </v>
   <v>       0.18750000 </v>
   <v>       0.18750000 </v>
   <v>       0.09375000 </v>
   <v>       0.03125000 </v>
   <v>       0.09375000 </v>
  </varray>
 </kpoints>
 <parameters>
  <separator name="general" >
   <i type="string" name="SYSTEM">Co-fcc</i>
   <i type="logical" name="LCOMPAT"> F  </i>
  </separator>
  <separator name="electronic" >
   <i type="string" name="PREC">accura</i>
   <i name="ENMAX">    400.00000000</i>
   <i name="ENAUG">    477.81800000</i>
   <i name="EDIFF">      0.00000100</i>
   <i type="int" name="IALGO">    38</i>
   <i type="int" name="IWAVPR">    10</i>
   <i type="int" name="NBANDS">    12</i>
   <i type="int" name="NBANDSLOW">    -1</i>
   <i type="int" name="NBANDSHIGH">    -1</i>
   <i name="NELECT">      9.00000000</i>
   <i type="int" name="TURBO">     0</i>
   <i type="int" name="IRESTART">     0</i>
   <i type="int" name="NREBOOT">     0</i>
   <i type="int" name="NMIN">     0</i>
   <i name="EREF">      0.00000000</i>
   <separator name="electronic smearing" >
    <i type="int" name="ISMEAR">     0</i>
    <i name="SIGMA">      0.05000000</i>
    <i name="KSPACING">      0.50000000</i>
    <i type="logical" name="KGAMMA"> T  </i>
    <i type="logical" name="KBLOWUP"> T  </i>
   </separator>
   <separator name="electronic projectors" >
    <i type="logical" name="LREAL"> F  </i>
    <v name="ROPT">      0.00000000</v>
    <i type="int" name="LMAXPAW">  -100</i>
    <i type="int" name="LMAXMIX">     2</i>
    <i type="logical" name="NLSPLINE"> F  </i>
   </separator>
   <separator name="electronic startup" >
    <i type="int" name="ISTART">     0</i>
    <i type="int" name="ICHARG">     2</i>
    <i type="int" name="INIWAV">     1</i>
   </separator>
   <separator name="electronic spin" >
    <i type="int" name="ISPIN">     2</i>
    <i type="logical" name="LNONCOLLINEAR"> F  </i>
    <v name="MAGMOM">      3.00000000</v>
    <i name="NUPDOWN">     -1.00000000</i>
    <i type="logical" name="LSORBIT"> F  </i>
    <v name="SAXIS">      0.00000000      0.00000000      1.00000000</v>
    <i type="logical" name="LSPIRAL"> F  </i>
    <v name="QSPIRAL">      0.00000000      0.00000000      0.00000000</v>
    <i type="logical" name="LZEROZ"> F  </i>
   </separator>
   <separator name="electronic exchange-correlation" >
    <i type="logical" name="LASPH"> F  </i>
    <i type="logical" name="LMETAGGA"> F  </i>
   </separator>
   <separator name="electronic convergence" >
    <i type="int" name="NELM">   100</i>
    <i type="int" name="NELMDL">    -5</i>
    <i type="int" name="NELMIN">     2</i>
    <i name="ENINI">    400.00000000</i>
    <separator name="electronic convergence detail" >
     <i type="logical" name="LDIAG"> T  </i>
     <i type="logical" name="LSUBROT"> F  </i>
     <i name="WEIMIN">      0.00000000</i>
     <i name="EBREAK">      0.00000002</i>
     <i name="DEPER">      0.30000000</i>
     <i type="int" name="NRMM">     4</i>
     <i name="TIME">      0.40000000</i>
    </separator>
   </separator>
   <separator name="electronic mixer" >
    <i name="AMIX">      0.40000000</i>
    <i name="BMIX">      1.00000000</i>
    <i name="AMIN">      0.10000000</i>
    <i name="AMIX_MAG">      1.60000000</i>
    <i name="BMIX_MAG">      1.00000000</i>
    <separator name="electronic mixer details" >
     <i type="int" name="IMIX">     4</i>
     <i type="logical" name="MIXFIRST"> F  </i>
     <i type="int" name="MAXMIX">   -45</i>
     <i name="WC">    100.00000000</i>
     <i type="int" name="INIMIX">     1</i>
     <i type="int" name="MIXPRE">     1</i>
     <i type="int" name="MREMOVE">     5</i>
    </separator>
   </separator>
   <separator name="electronic dipolcorrection" >
    <i type="logical" name="LDIPOL"> F  </i>
    <i type="logical" name="LMONO"> F  </i>
    <i type="int" name="IDIPOL">     0</i>
    <i name="EPSILON">      1.00000000</i>
    <v name="DIPOL">   -100.00000000   -100.00000000   -100.00000000</v>
    <i name="EFIELD">      0.00000000</i>
   </separator>
  </separator>
  <separator name="grids" >
   <i type="int" name="NGX">    16</i>
   <i type="int" name="NGY">    16</i>
   <i type="int" name="NGZ">    16</i>
   <i type="int" name="NGXF">    32</i>
   <i type="int" name="NGYF">    32</i>
   <i type="int" name="NGZF">    32</i>
   <i type="logical" name="ADDGRID"> F  </i>
  </separator>
  <separator name="ionic" >
   <i type="int" name="NSW">     0</i>
   <i type="int" name="IBRION">    -1</i>
   <i type="int" name="MDALGO">     0</i>
   <i type="int" name="ISIF">     2</i>
   <i name="PSTRESS">      0.00000000</i>
   <i name="EDIFFG">     -0.02000000</i>
   <i type="int" name="NFREE">     0</i>
   <i name="POTIM">      0.50000000</i>
   <i name="SMASS">     -3.00000000</i>
   <i name="SCALEE">      1.00000000</i>
  </separator>
  <separator name="ionic md" >
   <i name="TEBEG">      0.00010000</i>
   <i name="TEEND">      0.00010000</i>
   <i type="int" name="NBLOCK">     1</i>
   <i type="int" name="KBLOCK">     1</i>
   <i type="int" name="NPACO">   256</i>
   <i name="APACO">     10.00000000</i>
  </separator>
  <separator name="symmetry" >
   <i type="int" name="ISYM">     1</i>
   <i name="SYMPREC">      0.00001000</i>
  </separator>
  <separator name="dos" >
   <i type="int" name="LORBIT">     0</i>
   <v name="RWIGS">     -1.00000000</v>
   <i type="int" name="NEDOS">   301</i>
   <i name="EMIN">     10.00000000</i>
   <i name="EMAX">    -10.00000000</i>
   <i name="EFERMI">      0.00000000</i>
  </separator>
  <separator name="writing" >
   <i type="int" name="NWRITE">     2</i>
   <i type="logical" name="LWAVE"> F  </i>
   <i type="logical" name="LDOWNSAMPLE"> F  </i>
   <i type="logical" name="LCHARG"> F  </i>
   <i type="logical" name="LPARD"> F  </i>
   <i type="logical" name="LVTOT"> F  </i>
   <i type="logical" name="LVHAR"> F  </i>
   <i type="logical" name="LELF"> F  </i>
   <i type="logical" name="LOPTICS"> F  </i>
   <v name="STM">      0.00000000      0.00000000      0.00000000      0.00000000      0.00000000      0.00000000      0.00000000</v>
  </separator>
  <separator name="performance" >
   <i type="int" name="NPAR">     4</i>
   <i type="int" name="NSIM">     4</i>
   <i type="int" name="NBLK">    -1</i>
   <i type="logical" name="LPLANE"> T  </i>
   <i type="logical" name="LSCALAPACK"> T  </i>
   <i type="logical" name="LSCAAWARE"> T  </i>
   <i type="logical" name="LSCALU"> F  </i>
   <i type="logical" name="LASYNC"> F  </i>
   <i type="logical" name="LORBITALREAL"> F  </i>
  </separator>
  <separator name="miscellaneous" >
   <i type="int" name="IDIOT">     3</i>
   <i type="int" name="PHON_NSTRUCT">    -1</i>
   <i type="logical" name="LMUSIC"> F  </i>
   <v name="POMASS">     58.93300000</v>
   <v name="DARWINR">      0.00000000</v>
   <v name="DARWINV">      1.00000000</v>
   <i type="logical" name="LCORR"> T  </i>
  </separator>
  <i type="logical" name="GGA_COMPAT"> T  </i>
  <i type="logical" name="LBERRY"> F  </i>
  <i type="int" name="ICORELEVEL">     0</i>
  <i type="logical" name="LDAU"> F  </i>
  <i type="int" name="I_CONSTRAINED_M">     0</i>
  <separator name="electronic exchange-correlation" >
   <i type="string" name="GGA">--</i>
   <i type="int" name="VOSKOWN">     0</i>
   <i type="logical" name="LHFCALC"> F  </i>
   <i type="string" name="PRECFOCK"></i>
   <i type="logical" name="LSYMGRAD"> F  </i>
   <i type="logical" name="LHFONE"> F  </i>
   <i type="logical" name="LRHFCALC"> F  </i>
   <i type="logical" name="LTHOMAS"> F  </i>
   <i type="logical" name="LMODELHF"> F  </i>
   <i type="logical" name="LFOCKACE"> F  </i>
   <i name="ENCUT4O">     -1.00000000</i>
   <i type="int" name="EXXOEP">     0</i>
   <i type="int" name="FOURORBIT">     0</i>
   <i name="AEXX">      0.00000000</i>
   <i name="HFALPHA">      0.00000000</i>
   <i name="MCALPHA">      0.00000000</i>
   <i name="ALDAX">      1.00000000</i>
   <i name="AGGAX">      1.00000000</i>
   <i name="ALDAC">      1.00000000</i>
   <i name="AGGAC">      1.00000000</i>
   <i type="int" name="NKREDX">     1</i>
   <i type="int" name="NKREDY">     1</i>
   <i type="int" name="NKREDZ">     1</i>
   <i type="logical" name="SHIFTRED"> F  </i>
   <i type="logical" name="ODDONLY"> F  </i>
   <i type="logical" name="EVENONLY"> F  </i>
   <i type="int" name="LMAXFOCK">     0</i>
   <i type="int" name="NMAXFOCKAE">     0</i>
   <i type="logical" name="LFOCKAEDFT"> F  </i>
   <i name="HFSCREEN">      0.00000000</i>
   <i name="HFSCREENC">      0.00000000</i>
   <i type="int" name="NBANDSGWLOW">     0</i>
  </separator>
  <separator name="vdW DFT" >
   <i type="logical" name="LUSE_VDW"> F  </i>
   <i name="Zab_VDW">     -0.84910000</i>
   <i name="PARAM1">      0.12340000</i>
   <i name="PARAM2">      1.00000000</i>
   <i name="PARAM3">      0.00000000</i>
  </separator>
  <separator name="model GW" >
   <i type="int" name="MODEL_GW">     0</i>
   <i name="MODEL_EPS0">      6.48653265</i>
   <i name="MODEL_ALPHA">      1.00000000</i>
  </separator>
  <separator name="linear response parameters" >
   <i type="logical" name="LEPSILON"> F  </i>
   <i type="logical" name="LRPA"> F  </i>
   <i type="logical" name="LNABLA"> F  </i>
   <i type="logical" name="LVEL"> F  </i>
   <i name="CSHIFT">      0.10000000</i>
   <i name="OMEGAMAX">     -1.00000000</i>
   <i name="DEG_THRESHOLD">      0.00200000</i>
   <i name="RTIME">     -0.10000000</i>
   <i name="WPLASMAI">      0.00000000</i>
   <v name="DFIELD">      0.00000000      0.00000000      0.00000000</v>
   <v name="WPLASMA">      0.00000000      0.00000000      0.00000000      0.00000000      0.00000000      0.00000000      0.00000000      0.00000000      0.00000000</v>
  </separator>
  <separator name="orbital magnetization" >
   <i type="logical" name="NUCIND"> F  </i>
   <v name="MAGPOS">      0.00000000      0.00000000      0.00000000</v>
   <i type="logical" name="LNICSALL"> T  </i>
   <i type="logical" name="ORBITALMAG"> F  </i>
   <i type="logical" name="LMAGBLOCH"> F  </i>
   <i type="logical" name="LCHIMAG"> F  </i>
   <i type="logical" name="LGAUGE"> T  </i>
   <i type="int" name="MAGATOM">     0</i>
   <v name="MAGDIPOL">      0.00000000      0.00000000      0.00000000</v>
   <v name="AVECCONST">      0.00000000      0.00000000      0.00000000</v>
  </separator>
  <separator name="response functions" >
   <i type="logical" name="LFINITE_TEMPERATURE"> F  </i>
   <i type="logical" name="LADDER"> F  </i>
   <i type="logical" name="LRPAFORCE"> F  </i>
   <i type="logical" name="LFXC"> F  </i>
   <i type="logical" name="LHARTREE"> T  </i>
   <i type="int" name="IBSE">     0</i>
   <v type="int" name="KPOINT">    -1     0     0     0</v>
   <i type="logical" name="LTCTC"> F  </i>
   <i type="logical" name="LTCTE"> F  </i>
   <i type="logical" name="LTETE"> F  </i>
   <i type="logical" name="LTRIPLET"> F  </i>
   <i type="logical" name="LFXCEPS"> F  </i>
   <i type="logical" name="LFXHEG"> F  </i>
   <i type="int" name="NATURALO">     2</i>
   <i type="logical" name="LHOLEGF"> F  </i>
   <i type="logical" name="L2ORDER"> F  </i>
   <i type="logical" name="LDMP1"> F  </i>
   <i type="logical" name="LMP2LT"> F  </i>
   <i type="logical" name="LSMP2LT"> F  </i>
   <i type="logical" name="LGWLF"> F  </i>
   <i name="ENCUTGW">     -2.00000000</i>
   <i name="ENCUTGWSOFT">     -2.00000000</i>
   <i name="ENCUTLF">     -1.00000000</i>
   <i type="logical" name="LESF_SPLINES"> F  </i>
   <i type="int" name="LMAXMP2">    -1</i>
   <i name="SCISSOR">      0.00000000</i>
   <i type="int" name="NOMEGA">     0</i>
   <i type="int" name="NOMEGAR">     0</i>
   <i type="int" name="NBANDSGW">    -1</i>
   <i type="int" name="NBANDSO">    -1</i>
   <i type="int" name="NBANDSV">    -1</i>
   <i type="int" name="NELMGW">     1</i>
   <i type="int" name="NELMHF">     1</i>
   <i type="int" name="DIM">     3</i>
   <i type="int" name="IESPILON">     4</i>
   <i type="int" name="ANTIRES">     0</i>
   <i name="OMEGAMAX">    -30.00000000</i>
   <i name="OMEGAMIN">    -30.00000000</i>
   <i name="OMEGATL">   -200.00000000</i>
   <i type="int" name="OMEGAGRID">     0</i>
   <i name="CSHIFT">     -0.10000000</i>
   <i type="logical" name="LSELFENERGY"> F  </i>
   <i type="logical" name="LSPECTRAL"> F  </i>
   <i type="logical" name="LSPECTRALGW"> F  </i>
   <i type="logical" name="LSINGLES"> F  </i>
   <i type="logical" name="LFERMIGW"> F  </i>
   <i type="logical" name="ODDONLYGW"> F  </i>
   <i type="logical" name="EVENONLYGW"> F  </i>
   <i type="int" name="NKREDLFX">     1</i>
   <i type="int" name="NKREDLFY">     1</i>
   <i type="int" name="NKREDLFZ">     1</i>
   <i type="int" name="MAXMEM">  2800</i>
   <i type="int" name="TELESCOPE">     0</i>
   <i type="int" name="NTAUPAR">    -1</i>
   <i type="int" name="NOMEGAPAR">    -1</i>
   <i name="DAMP_NEWTON">      0.80000001</i>
   <i name="LAMBDA">      1.00000000</i>
  </separator>
  <separator name="External order field" >
   <i name="OFIELD_KAPPA">      0.00000000</i>
   <v name="OFIELD_K">      0.00000000      0.00000000      0.00000000</v>
   <i name="OFIELD_Q6_NEAR">      0.00000000</i>
   <i name="OFIELD_Q6_FAR">      0.00000000</i>
   <i name="OFIELD_A">      0.00000000</i>
  </separator>
  <separator name="optional k-points parameters" >
   <i type="int" name="KPOINTS_OPT_MODE">     1</i>
   <i type="logical" name="LKPOINTS_OPT"> F  </i>
  </separator>
 </parameters>
 <atominfo>
  <atoms>       1 </atoms>
  <types>       1 </types>
  <array name="atoms" >
   <dimension dim="1">ion</dimension>
   <field type="string">element</field>
   <field type="int">atomtype</field>
   <set>
    <rc><c>Co</c><c>   1</c></rc>
   </set>
  </array>
  <array name="atomtypes" >
   <dimension dim="1">type</dimension>
   <field type="int">atomspertype</field>
   <field type="string">element</field>
   <field>mass</field>
   <field>valence</field>
   <field type="string">pseudopotential</field>
   <set>
    <rc><c>   1</c><c>Co</c><c>     58.93300000</c><c>      9.00000000</c><c>  PAW_PBE Co 02Aug2007                  </c></rc>
   </set>
  </array>
 </atominfo>
 <structure name="initialpos" >
  <crystal>
   <varray name="basis" >
    <v>       0.00000000       1.75500000       1.75500000 </v>
    <v>       1.75500000       0.00000000       1.75500000 </v>
    <v>       1.75500000       1.75500000       0.00000000 </v>
   </varray>
   <i name="volume">     10.81088775 </i>
   <varray name="rec_basis" >
    <v>      -0.28490028       0.28490028       0.28490028 </v>
    <v>       0.28490028      -0.28490028       0.28490028 </v>
    <v>       0.28490028       0.28490028      -0.28490028 </v>
   </varray>
  </crystal>
  <varray name="positions" >
   <v>       0.00000000       0.00000000       0.00000000 </v>
  </varray>
 </structure>
 <calculation>
  <scstep>
   <time name="dav">    0.05    0.05</time>
   <time name="total">    0.06    0.06</time>
   <energy>
    <i name="alphaZ">     39.18058524 </i>
    <i name="ewald">   -761.78120824 </i>
    <i name="hartreedc">   -149.59159932 </i>
    <i name="XCdc">     17.82600435 </i>
    <i name="pawpsdc">    719.99081943 </i>
    <i name="pawaedc">   -772.94345096 </i>
    <i name="eentropy">     -0.00406811 </i>
    <i name="bandstr">    117.31022084 </i>
    <i name="atom">    813.35773410 </i>
    <i name="e_fr_energy">     23.34503733 </i>
    <i name="e_wo_entrp">     23.34910545 </i>
    <i name="e_0_energy">     23.34707139 </i>
   </energy>
  </scstep>
  <scstep>
   <time name="dav">    0.05    0.05</time>
   <time name="total">    0.05    0.05</time>
   <energy>
    <i name="e_fr_energy">     -6.89554780 </i>
    <i name="e_wo_entrp">     -6.89371248 </i>
    <i name="e_0_energy">     -6.89463014 </i>
   </energy>
  </scstep>
  <scstep>
   <time name="dav">    0.05    0.05</time>
   <time name="total">    0.05    0.05</time>
   <energy>
    <i name="e_fr_energy">     -7.77271258 </i>
    <i name="e_wo_entrp">     -7.77127360 </i>
    <i name="e_0_energy">     -7.77199309 </i>
   </energy>
  </scstep>
  <scstep>
   <time name="dav">    0.05    0.05</time>
   <time name="total">    0.05    0.05</time>
   <energy>
    <i name="e_fr_energy">     -7.78278565 </i>
    <i name="e_wo_entrp">     -7.78134086 </i>
    <i name="e_0_energy">     -7.78206325 </i>
   </energy>
  </scstep>
  <scstep>
   <time name="dav">    0.05    0.05</time>
   <time name="total">    0.06    0.06</time>
   <energy>
    <i name="e_fr_energy">     -7.78304695 </i>
    <i name="e_wo_entrp">     -7.78160227 </i>
    <i name="e_0_energy">     -7.78232461 </i>
   </energy>
  </scstep>
  <scstep>
   <time name="dav">    0.05    0.05</time>
   <time name="total">    0.07    0.07</time>
   <energy>
    <i name="e_fr_energy">     -7.18518574 </i>
    <i name="e_wo_entrp">     -7.18123585 </i>
    <i name="e_0_energy">     -7.18321079 </i>
   </energy>
  </scstep>
  <scstep>
   <time name="dav">    0.06    0.06</time>
   <time name="total">    0.08    0.08</time>
   <energy>
    <i name="e_fr_energy">     -7.04710652 </i>
    <i name="e_wo_entrp">     -7.04571477 </i>
    <i name="e_0_energy">     -7.04641065 </i>
   </energy>
  </scstep>
  <scstep>
   <time name="dav">    0.05    0.05</time>
   <time name="total">    0.07    0.07</time>
   <energy>
    <i name="e_fr_energy">     -7.03486429 </i>
    <i name="e_wo_entrp">     -7.03347378 </i>
    <i name="e_0_energy">     -7.03416904 </i>
   </energy>
  </scstep>
  <scstep>
   <time name="dav">    0.05    0.05</time>
   <time name="total">    0.07    0.07</time>
   <energy>
    <i name="e_fr_energy">     -7.02819056 </i>
    <i name="e_wo_entrp">     -7.02662806 </i>
    <i name="e_0_energy">     -7.02740931 </i>
   </energy>
  </scstep>
  <scstep>
   <time name="dav">    0.05    0.05</time>
   <time name="total">    0.07    0.07</time>
   <energy>
    <i name="e_fr_energy">     -7.02793483 </i>
    <i name="e_wo_entrp">     -7.02621850 </i>
    <i name="e_0_energy">     -7.02707666 </i>
   </energy>
  </scstep>
  <scstep>
   <time name="dav">    0.05    0.05</time>
   <time name="total">    0.06    0.06</time>
   <energy>
    <i name="e_fr_energy">     -7.02795928 </i>
    <i name="e_wo_entrp">     -7.02624964 </i>
    <i name="e_0_energy">     -7.02710446 </i>
   </energy>
  </scstep>
  <scstep>
   <time name="dav">    0.04    0.04</time>
   <time name="total">    0.05    0.05</time>
   <energy>
    <i name="alphaZ">     39.18058524 </i>
    <i name="ewald">   -761.78120824 </i>
    <i name="hartreedc">   -131.70602204 </i>
    <i name="XCdc">     16.46382349 </i>
    <i name="pawpsdc">    905.36818111 </i>
    <i name="pawaedc">   -958.47822685 </i>
    <i name="eentropy">     -0.00170413 </i>
    <i name="bandstr">     70.56887745 </i>
    <i name="atom">    813.35773410 </i>
    <i name="e_fr_energy">     -7.02795986 </i>
    <i name="e_wo_entrp">     -7.02625573 </i>
    <i name="e_0_energy">     -7.02710780 </i>
   </energy>
  </scstep>
  <structure>
   <crystal>
    <varray name="basis" >
     <v>       0.00000000       1.75500000       1.75500000 </v>
     <v>       1.75500000       0.00000000       1.75500000 </v>
     <v>       1.75500000       1.75500000       0.00000000 </v>
    </varray>
    <i name="volume">     10.81088775 </i>
    <varray name="rec_basis" >
     <v>      -0.28490028       0.28490028       0.28490028 </v>
     <v>       0.28490028      -0.28490028       0.28490028 </v>
     <v>       0.28490028       0.28490028      -0.28490028 </v>
    </varray>
   </crystal>
   <varray name="positions" >
    <v>       0.00000000       0.00000000       0.00000000 </v>
   </varray>
  </structure>
  <varray name="forces" >
   <v>       0.00000000       0.00000000      -0.00000000 </v>
  </varray>
  <varray name="stress" >
   <v>      10.74275461      -0.00000000       0.00000000 </v>
   <v>      -0.00000000      10.74275461      -0.00000000 </v>
   <v>       0.00000000      -0.00000000      10.74275461 </v>
  </varray>
  <energy>
   <i name="e_fr_energy">     -7.02795986 </i>
   <i name="e_wo_entrp">     -7.02625573 </i>
   <i name="e_0_energy">     -7.02710780 </i>
  </energy>
  <time name="totalsc">    0.75    0.76</time>
  <eigenvalues>
   <array>
    <dimension dim="1">band</dimension>
    <dimension dim="2">kpoint</dimension>
    <dimension dim="3">spin</dimension>
    <field>eigene</field>
    <field>occ</field>
    <set>
     <set comment="spin 1">
      <set comment="kpoint 1">
       <r>    1.9789    1.0000 </r>
       <r>    7.4779    1.0000 </r>
       <r>    7.7623    1.0000 </r>
       <r>    7.7623    1.0000 </r>
       <r>    8.6514    1.0000 </r>
       <r>    8.6514    1.0000 </r>
       <r>   31.1905    0.0000 </r>
       <r>   34.7321    0.0000 </r>
       <r>   37.0249    0.0000 </r>
       <r>   37.0249    0.0000 </r>
       <r>   41.8940    0.0000 </r>
       <r>   42.2875    0.0000 </r>
      </set>
      <set comment="kpoint 2">
       <r>    4.6156    1.0000 </r>
       <r>    7.1366    1.0000 </r>
       <r>    7.6301    1.0000 </r>
       <r>    7.9578    1.0000 </r>
       <r>    8.6675    1.0000 </r>
       <r>    9.7200    1.0000 </r>
       <r>   23.5183    0.0000 </r>
       <r>   28.8297    0.0000 </r>
       <r>   35.4979    0.0000 </r>
       <r>   37.3617    0.0000 </r>
       <r>   39.8678    0.0000 </r>
       <r>   40.3732    0.0000 </r>
      </set>
      <set comment="kpoint 3">
       <r>    5.4706    1.0000 </r>
       <r>    7.2183    1.0000 </r>
       <r>    7.7732    1.0000 </r>
       <r>    8.1791    1.0000 </r>
       <r>    9.6004    1.0000 </r>
       <r>   11.6544    0.0000 </r>
       <r>   17.1157    0.0000 </r>
       <r>   29.7146    0.0000 </r>
       <r>   32.2629    0.0000 </r>
       <r>   33.3279    0.0000 </r>
       <r>   41.5086    0.0000 </r>
       <r>   41.5160    0.0000 </r>
      </set>
      <set comment="kpoint 4">
       <r>    3.4594    1.0000 </r>
       <r>    7.0313    1.0000 </r>
       <r>    7.8693    1.0000 </r>
       <r>    8.0708    1.0000 </r>
       <r>    8.5895    1.0000 </r>
       <r>    8.9967    1.0000 </r>
       <r>   27.5319    0.0000 </r>
       <r>   32.4681    0.0000 </r>
       <r>   32.5356    0.0000 </r>
       <r>   35.9158    0.0000 </r>
       <r>   40.4962    0.0000 </r>
       <r>   43.2162    0.0000 </r>
      </set>
      <set comment="kpoint 5">
       <r>    5.2220    1.0000 </r>
       <r>    6.3651    1.0000 </r>
       <r>    7.9492    1.0000 </r>
       <r>    8.6556    1.0000 </r>
       <r>    9.4460    1.0000 </r>
       <r>    9.9209    1.0000 </r>
       <r>   24.4822    0.0000 </r>
       <r>   27.6934    0.0000 </r>
       <r>   28.5636    0.0000 </r>
       <r>   32.3370    0.0000 </r>
       <r>   37.8650    0.0000 </r>
       <r>   47.0264    0.0000 </r>
      </set>
      <set comment="kpoint 6">
       <r>    5.9856    1.0000 </r>
       <r>    6.4374    1.0000 </r>
       <r>    7.5539    1.0000 </r>
       <r>    8.7278    1.0000 </r>
       <r>    9.6589    1.0000 </r>
       <r>   15.3746    0.0000 </r>
       <r>   18.7304    0.0000 </r>
       <r>   22.4170    0.0000 </r>
       <r>   24.7127    0.0000 </r>
       <r>   35.9660    0.0000 </r>
       <r>   42.3187    0.0000 </r>
       <r>   44.4106    0.0000 </r>
      </set>
      <set comment="kpoint 7">
       <r>    5.8708    1.0000 </r>
       <r>    6.8246    1.0000 </r>
       <r>    7.2549    1.0000 </r>
       <r>    8.3305    1.0000 </r>
       <r>    9.2571    1.0000 </r>
       <r>   11.5652    0.0000 </r>
       <r>   20.5506    0.0000 </r>
       <r>   26.0250    0.0000 </r>
       <r>   29.1814    0.0000 </r>
       <r>   36.5108    0.0000 </r>
       <r>   40.1824    0.0000 </r>
       <r>   44.7051    0.0000 </r>
      </set>
      <set comment="kpoint 8">
       <r>    5.3294    1.0000 </r>
       <r>    5.9087    1.0000 </r>
       <r>    8.9437    1.0000 </r>
       <r>    9.2066    1.0000 </r>
       <r>    9.7307    1.0000 </r>
       <r>   13.0372    0.0000 </r>
       <r>   21.3905    0.0000 </r>
       <r>   22.7534    0.0000 </r>
       <r>   26.2702    0.0000 </r>
       <r>   31.6185    0.0000 </r>
       <r>   36.8408    0.0000 </r>
       <r>   47.2417    0.0000 </r>
      </set>
      <set comment="kpoint 9">
       <r>    4.9303    1.0000 </r>
       <r>    7.6140    1.0000 </r>
       <r>    7.6140    1.0000 </r>
       <r>    8.3960    1.0000 </r>
       <r>    9.3385    1.0000 </r>
       <r>    9.3385    1.0000 </r>
       <r>   19.5441    0.0000 </r>
       <r>   32.5473    0.0000 </r>
       <r>   35.5223    0.0000 </r>
       <r>   35.5223    0.0000 </r>
       <r>   38.9270    0.0000 </r>
       <r>   38.9270    0.0000 </r>
      </set>
      <set comment="kpoint 10">
       <r>    6.1916    1.0000 </r>
       <r>    6.6610    1.0000 </r>
       <r>    7.4838    1.0000 </r>
       <r>    8.2966    1.0000 </r>
       <r>    9.3371    1.0000 </r>
       <r>   14.0592    0.0000 </r>
       <r>   17.7442    0.0000 </r>
       <r>   23.6249    0.0000 </r>
       <r>   30.5764    0.0000 </r>
       <r>   32.7728    0.0000 </r>
       <r>   44.9533    0.0000 </r>
       <r>   44.9563    0.0000 </r>
      </set>
     </set>
     <set comment="spin 2">
      <set comment="kpoint 1">
       <r>    2.0013    1.0000 </r>
       <r>    9.0682    1.0000 </r>
       <r>    9.4229    1.0000 </r>
       <r>    9.4229    1.0000 </r>
       <r>   10.6486    0.0000 </r>
       <r>   10.6486    0.0000 </r>
       <r>   31.3212    0.0000 </r>
       <r>   34.5866    0.0000 </r>
       <r>   37.3007    0.0000 </r>
       <r>   37.3007    0.0000 </r>
       <r>   41.8099    0.0000 </r>
       <r>   42.4542    0.0000 </r>
      </set>
      <set comment="kpoint 2">
       <r>    4.8155    1.0000 </r>
       <r>    8.4743    1.0000 </r>
       <r>    9.3213    1.0000 </r>
       <r>    9.7487    1.0000 </r>
       <r>   10.5271    0.0001 </r>
       <r>   11.5815    0.0000 </r>
       <r>   24.0196    0.0000 </r>
       <r>   29.1022    0.0000 </r>
       <r>   35.4751    0.0000 </r>
       <r>   37.6852    0.0000 </r>
       <r>   39.8853    0.0000 </r>
       <r>   40.7037    0.0000 </r>
      </set>
      <set comment="kpoint 3">
       <r>    6.4329    1.0000 </r>
       <r>    8.7127    1.0000 </r>
       <r>    9.3022    1.0000 </r>
       <r>    9.5424    1.0000 </r>
       <r>   11.5704    0.0000 </r>
       <r>   12.7367    0.0000 </r>
       <r>   18.0336    0.0000 </r>
       <r>   29.8257    0.0000 </r>
       <r>   32.6079    0.0000 </r>
       <r>   33.5109    0.0000 </r>
       <r>   41.6527    0.0000 </r>
       <r>   41.7628    0.0000 </r>
      </set>
      <set comment="kpoint 4">
       <r>    3.5241    1.0000 </r>
       <r>    8.5215    1.0000 </r>
       <r>    9.6116    1.0000 </r>
       <r>    9.7829    1.0000 </r>
       <r>   10.4002    0.3860 </r>
       <r>   11.0031    0.0000 </r>
       <r>   27.8871    0.0000 </r>
       <r>   32.5050    0.0000 </r>
       <r>   32.8286    0.0000 </r>
       <r>   36.0619    0.0000 </r>
       <r>   41.0785    0.0000 </r>
       <r>   43.3255    0.0000 </r>
      </set>
      <set comment="kpoint 5">
       <r>    5.7527    1.0000 </r>
       <r>    7.7444    1.0000 </r>
       <r>    9.3960    1.0000 </r>
       <r>   10.4802    0.0053 </r>
       <r>   11.4436    0.0000 </r>
       <r>   11.4520    0.0000 </r>
       <r>   24.8919    0.0000 </r>
       <r>   28.0316    0.0000 </r>
       <r>   28.8729    0.0000 </r>
       <r>   32.6231    0.0000 </r>
       <r>   38.3066    0.0000 </r>
       <r>   48.3482    0.0000 </r>
      </set>
      <set comment="kpoint 6">
       <r>    7.2713    1.0000 </r>
       <r>    7.7013    1.0000 </r>
       <r>    8.8640    1.0000 </r>
       <r>   10.6588    0.0000 </r>
       <r>   11.5480    0.0000 </r>
       <r>   16.1289    0.0000 </r>
       <r>   19.3171    0.0000 </r>
       <r>   22.9927    0.0000 </r>
       <r>   25.1122    0.0000 </r>
       <r>   36.1502    0.0000 </r>
       <r>   42.5416    0.0000 </r>
       <r>   44.7820    0.0000 </r>
      </set>
      <set comment="kpoint 7">
       <r>    6.5989    1.0000 </r>
       <r>    8.1141    1.0000 </r>
       <r>    8.7682    1.0000 </r>
       <r>   10.1481    1.0000 </r>
       <r>   11.1289    0.0000 </r>
       <r>   12.9499    0.0000 </r>
       <r>   21.1448    0.0000 </r>
       <r>   26.3873    0.0000 </r>
       <r>   29.5166    0.0000 </r>
       <r>   36.6475    0.0000 </r>
       <r>   40.3360    0.0000 </r>
       <r>   45.2956    0.0000 </r>
      </set>
      <set comment="kpoint 8">
       <r>    6.5128    1.0000 </r>
       <r>    7.2233    1.0000 </r>
       <r>   10.3344    0.9420 </r>
       <r>   11.2100    0.0000 </r>
       <r>   11.6684    0.0000 </r>
       <r>   13.7427    0.0000 </r>
       <r>   22.0887    0.0000 </r>
       <r>   23.1293    0.0000 </r>
       <r>   26.4981    0.0000 </r>
       <r>   31.9708    0.0000 </r>
       <r>   37.2526    0.0000 </r>
       <r>   50.9707    0.0000 </r>
      </set>
      <set comment="kpoint 9">
       <r>    5.5241    1.0000 </r>
       <r>    9.0391    1.0000 </r>
       <r>    9.3592    1.0000 </r>
       <r>    9.3592    1.0000 </r>
       <r>   11.2874    0.0000 </r>
       <r>   11.2874    0.0000 </r>
       <r>   20.2606    0.0000 </r>
       <r>   32.2575    0.0000 </r>
       <r>   35.8859    0.0000 </r>
       <r>   35.8859    0.0000 </r>
       <r>   39.1936    0.0000 </r>
       <r>   39.1936    0.0000 </r>
      </set>
      <set comment="kpoint 10">
       <r>    7.2953    1.0000 </r>
       <r>    7.9839    1.0000 </r>
       <r>    8.7903    1.0000 </r>
       <r>   10.1676    1.0000 </r>
       <r>   11.2208    0.0000 </r>
       <r>   14.9788    0.0000 </r>
       <r>   18.4970    0.0000 </r>
       <r>   24.1048    0.0000 </r>
       <r>   30.9282    0.0000 </r>
       <r>   32.9139    0.0000 </r>
       <r>   44.9932    0.0000 </r>
       <r>   45.1345    0.0000 </r>
      </set>
     </set>
    </set>
   </array>
  </eigenvalues>
  <separator name="orbital magnetization" >
   <v name="MAGDIPOLOUT">      0.00000000      0.00000000      0.00000000</v>
  </separator>
  <dos>
   <i name="efermi">     10.38993577 </i>
   <total>
    <array>
     <dimension dim="1">gridpoints</dimension>
     <dimension dim="2">spin</dimension>
     <field>energy</field>
     <field>total</field>
     <field>integrated</field>
     <set>
      <set comment="spin 1">
       <r>    -0.4707     0.0000     0.0000 </r>
       <r>    -0.2911     0.0000     0.0000 </r>
       <r>    -0.1115     0.0000     0.0000 </r>
       <r>     0.0682     0.0000     0.0000 </r>
       <r>     0.2478     0.0000     0.0000 </r>
       <r>     0.4275     0.0000     0.0000 </r>
       <r>     0.6071     0.0000     0.0000 </r>
       <r>     0.7867     0.0000     0.0000 </r>
       <r>     0.9664     0.0000     0.0000 </r>
       <r>     1.1460     0.0000     0.0000 </r>
       <r>     1.3256     0.0000     0.0000 </r>
       <r>     1.5053     0.0000     0.0000 </r>
       <r>     1.6849     0.0000     0.0000 </r>
       <r>     1.8646     0.0001     0.0000 </r>
       <r>     2.0442     0.1682     0.0302 </r>
       <r>     2.2238     0.0056     0.0312 </r>
       <r>     2.4035     0.0000     0.0312 </r>
       <r>     2.5831     0.0000     0.0312 </r>
       <r>     2.7627     0.0000     0.0312 </r>
       <r>     2.9424     0.0000     0.0312 </r>
       <r>     3.1220     0.0000     0.0312 </r>
       <r>     3.3016     0.0000     0.0313 </r>
       <r>     3.4813     0.3821     0.0999 </r>
       <r>     3.6609     0.1398     0.1250 </r>
       <r>     3.8406     0.0000     0.1250 </r>
       <r>     4.0202     0.0000     0.1250 </r>
       <r>     4.1998     0.0000     0.1250 </r>
       <r>     4.3795     0.0000     0.1250 </r>
       <r>     4.5591     0.0287     0.1302 </r>
       <r>     4.7387     0.4930     0.2187 </r>
       <r>     4.9184     0.0641     0.2302 </r>
       <r>     5.0980     0.1101     0.2500 </r>
       <r>     5.2776     0.5291     0.3451 </r>
       <r>     5.4573     0.6989     0.4706 </r>
       <r>     5.6369     0.3376     0.5312 </r>
       <r>     5.8166     0.0674     0.5434 </r>
       <r>     5.9962     2.1391     0.9276 </r>
       <r>     6.1758     0.5739     1.0307 </r>
       <r>     6.3555     0.5662     1.1324 </r>
       <r>     6.5351     1.3474     1.3745 </r>
       <r>     6.7147     0.4923     1.4629 </r>
       <r>     6.8944     1.0510     1.6517 </r>
       <r>     7.0740     0.5079     1.7429 </r>
       <r>     7.2536     1.5077     2.0138 </r>
       <r>     7.4333     0.6773     2.1355 </r>
       <r>     7.6129     1.9654     2.4885 </r>
       <r>     7.7926     1.2432     2.7118 </r>
       <r>     7.9722     1.4657     2.9751 </r>
       <r>     8.1518     0.9438     3.1447 </r>
       <r>     8.3315     1.3887     3.3941 </r>
       <r>     8.5111     0.7702     3.5325 </r>
       <r>     8.6907     1.7965     3.8552 </r>
       <r>     8.8704     1.1641     4.0643 </r>
       <r>     9.0500     0.9988     4.2437 </r>
       <r>     9.2297     0.6522     4.3609 </r>
       <r>     9.4093     1.8778     4.6982 </r>
       <r>     9.5889     0.6819     4.8207 </r>
       <r>     9.7686     2.2704     5.2285 </r>
       <r>     9.9482     0.5265     5.3231 </r>
       <r>    10.1278     0.1149     5.3437 </r>
       <r>    10.3075     0.0000     5.3438 </r>
       <r>    10.4871     0.0000     5.3438 </r>
       <r>    10.6667     0.0000     5.3438 </r>
       <r>    10.8464     0.0000     5.3438 </r>
       <r>    11.0260     0.0000     5.3438 </r>
       <r>    11.2057     0.0000     5.3438 </r>
       <r>    11.3853     0.0000     5.3438 </r>
       <r>    11.5649     0.5220     5.4375 </r>
       <r>    11.7446     1.0409     5.6245 </r>
       <r>    11.9242     0.0028     5.6250 </r>
       <r>    12.1038     0.0000     5.6250 </r>
       <r>    12.2835     0.0000     5.6250 </r>
       <r>    12.4631     0.0000     5.6250 </r>
       <r>    12.6427     0.0000     5.6250 </r>
       <r>    12.8224     0.0000     5.6250 </r>
       <r>    13.0020     0.0834     5.6400 </r>
       <r>    13.1817     0.4385     5.7187 </r>
       <r>    13.3613     0.0000     5.7188 </r>
       <r>    13.5409     0.0000     5.7188 </r>
       <r>    13.7206     0.0000     5.7188 </r>
       <r>    13.9002     0.0000     5.7188 </r>
       <r>    14.0798     0.3760     5.7863 </r>
       <r>    14.2595     0.1459     5.8125 </r>
       <r>    14.4391     0.0000     5.8125 </r>
       <r>    14.6187     0.0000     5.8125 </r>
       <r>    14.7984     0.0000     5.8125 </r>
       <r>    14.9780     0.0000     5.8125 </r>
       <r>    15.1577     0.0000     5.8125 </r>
       <r>    15.3373     0.1522     5.8398 </r>
       <r>    15.5169     0.8915     6.0000 </r>
       <r>    15.6966     0.0000     6.0000 </r>
       <r>    15.8762     0.0000     6.0000 </r>
       <r>    16.0558     0.0000     6.0000 </r>
       <r>    16.2355     0.0000     6.0000 </r>
       <r>    16.4151     0.0000     6.0000 </r>
       <r>    16.5947     0.0000     6.0000 </r>
       <r>    16.7744     0.0000     6.0000 </r>
       <r>    16.9540     0.0000     6.0000 </r>
       <r>    17.1337     0.3624     6.0651 </r>
       <r>    17.3133     0.1595     6.0937 </r>
       <r>    17.4929     0.0000     6.0938 </r>
       <r>    17.6726     0.0112     6.0958 </r>
       <r>    17.8522     0.5101     6.1874 </r>
       <r>    18.0318     0.0006     6.1875 </r>
       <r>    18.2115     0.0000     6.1875 </r>
       <r>    18.3911     0.0000     6.1875 </r>
       <r>    18.5708     0.0000     6.1875 </r>
       <r>    18.7504     0.7452     6.3214 </r>
       <r>    18.9300     0.2986     6.3750 </r>
       <r>    19.1097     0.0000     6.3750 </r>
       <r>    19.2893     0.0000     6.3750 </r>
       <r>    19.4689     0.0029     6.3755 </r>
       <r>    19.6486     0.1708     6.4062 </r>
       <r>    19.8282     0.0003     6.4062 </r>
       <r>    20.0078     0.0000     6.4062 </r>
       <r>    20.1875     0.0000     6.4062 </r>
       <r>    20.3671     0.0000     6.4063 </r>
       <r>    20.5468     0.4766     6.4919 </r>
       <r>    20.7264     0.5671     6.5937 </r>
       <r>    20.9060     0.0000     6.5938 </r>
       <r>    21.0857     0.0000     6.5938 </r>
       <r>    21.2653     0.0001     6.5938 </r>
       <r>    21.4449     0.4895     6.6817 </r>
       <r>    21.6246     0.0323     6.6875 </r>
       <r>    21.8042     0.0000     6.6875 </r>
       <r>    21.9838     0.0000     6.6875 </r>
       <r>    22.1635     0.0000     6.6875 </r>
       <r>    22.3431     0.0191     6.6909 </r>
       <r>    22.5228     1.0232     6.8747 </r>
       <r>    22.7024     0.0403     6.8820 </r>
       <r>    22.8820     0.4830     6.9687 </r>
       <r>    23.0617     0.0001     6.9688 </r>
       <r>    23.2413     0.0000     6.9688 </r>
       <r>    23.4209     0.0015     6.9690 </r>
       <r>    23.6006     0.6435     7.0846 </r>
       <r>    23.7802     0.3987     7.1562 </r>
       <r>    23.9598     0.0000     7.1562 </r>
       <r>    24.1395     0.0000     7.1562 </r>
       <r>    24.3191     0.0000     7.1563 </r>
       <r>    24.4988     0.3550     7.2200 </r>
       <r>    24.6784     0.3401     7.2811 </r>
       <r>    24.8580     0.8705     7.4375 </r>
       <r>    25.0377     0.0000     7.4375 </r>
       <r>    25.2173     0.0000     7.4375 </r>
       <r>    25.3969     0.0000     7.4375 </r>
       <r>    25.5766     0.0000     7.4375 </r>
       <r>    25.7562     0.0000     7.4375 </r>
       <r>    25.9358     0.0061     7.4386 </r>
       <r>    26.1155     1.0322     7.6240 </r>
       <r>    26.2951     0.4018     7.6962 </r>
       <r>    26.4748     0.1256     7.7187 </r>
       <r>    26.6544     0.0000     7.7188 </r>
       <r>    26.8340     0.0000     7.7188 </r>
       <r>    27.0137     0.0000     7.7188 </r>
       <r>    27.1933     0.0000     7.7188 </r>
       <r>    27.3729     0.0000     7.7188 </r>
       <r>    27.5526     0.3763     7.7863 </r>
       <r>    27.7322     0.5963     7.8935 </r>
       <r>    27.9119     0.0712     7.9062 </r>
       <r>    28.0915     0.0000     7.9062 </r>
       <r>    28.2711     0.0000     7.9062 </r>
       <r>    28.4508     0.0004     7.9063 </r>
       <r>    28.6304     0.5061     7.9972 </r>
       <r>    28.8100     0.1660     8.0271 </r>
       <r>    28.9897     0.3713     8.0937 </r>
       <r>    29.1693     0.3822     8.1624 </r>
       <r>    29.3489     0.6616     8.2812 </r>
       <r>    29.5286     0.0000     8.2813 </r>
       <r>    29.7082     0.2236     8.3214 </r>
       <r>    29.8879     0.2983     8.3750 </r>
       <r>    30.0675     0.0000     8.3750 </r>
       <r>    30.2471     0.0000     8.3750 </r>
       <r>    30.4268     0.0000     8.3750 </r>
       <r>    30.6064     0.4184     8.4502 </r>
       <r>    30.7860     0.1035     8.4687 </r>
       <r>    30.9657     0.0000     8.4688 </r>
       <r>    31.1453     0.0175     8.4719 </r>
       <r>    31.3249     0.1565     8.5000 </r>
       <r>    31.5046     0.0003     8.5001 </r>
       <r>    31.6842     0.5051     8.5908 </r>
       <r>    31.8639     0.0165     8.5937 </r>
       <r>    32.0435     0.0000     8.5938 </r>
       <r>    32.2231     0.0685     8.6061 </r>
       <r>    32.4028     0.9758     8.7813 </r>
       <r>    32.5824     1.1406     8.9862 </r>
       <r>    32.7620     0.2752     9.0357 </r>
       <r>    32.9417     0.3234     9.0937 </r>
       <r>    33.1213     0.0000     9.0938 </r>
       <r>    33.3009     0.1165     9.1147 </r>
       <r>    33.4806     0.4054     9.1875 </r>
       <r>    33.6602     0.0000     9.1875 </r>
       <r>    33.8399     0.0000     9.1875 </r>
       <r>    34.0195     0.0000     9.1875 </r>
       <r>    34.1991     0.0000     9.1875 </r>
       <r>    34.3788     0.0000     9.1875 </r>
       <r>    34.5584     0.0000     9.1875 </r>
       <r>    34.7380     0.0986     9.2052 </r>
       <r>    34.9177     0.0754     9.2187 </r>
       <r>    35.0973     0.0000     9.2188 </r>
       <r>    35.2769     0.0000     9.2188 </r>
       <r>    35.4566     0.0744     9.2321 </r>
       <r>    35.6362     0.7952     9.3750 </r>
       <r>    35.8159     0.0015     9.3752 </r>
       <r>    35.9955     1.3474     9.6173 </r>
       <r>    36.1751     0.2170     9.6562 </r>
       <r>    36.3548     0.0000     9.6563 </r>
       <r>    36.5344     0.7801     9.7964 </r>
       <r>    36.7140     0.2637     9.8438 </r>
       <r>    36.8937     0.4867     9.9312 </r>
       <r>    37.0733     0.3533     9.9947 </r>
       <r>    37.2530     0.0302    10.0001 </r>
       <r>    37.4326     0.5096    10.0916 </r>
       <r>    37.6122     0.0118    10.0937 </r>
       <r>    37.7919     0.0101    10.0956 </r>
       <r>    37.9715     0.5111    10.1874 </r>
       <r>    38.1511     0.0007    10.1875 </r>
       <r>    38.3308     0.0000    10.1875 </r>
       <r>    38.5104     0.0000    10.1875 </r>
       <r>    38.6900     0.0000    10.1875 </r>
       <r>    38.8697     0.0182    10.1908 </r>
       <r>    39.0493     0.3296    10.2500 </r>
       <r>    39.2290     0.0001    10.2500 </r>
       <r>    39.4086     0.0000    10.2500 </r>
       <r>    39.5882     0.0000    10.2500 </r>
       <r>    39.7679     0.0012    10.2502 </r>
       <r>    39.9475     0.5143    10.3426 </r>
       <r>    40.1271     0.0679    10.3548 </r>
       <r>    40.3068     0.9977    10.5340 </r>
       <r>    40.4864     0.7102    10.6616 </r>
       <r>    40.6660     0.3181    10.7187 </r>
       <r>    40.8457     0.0000    10.7188 </r>
       <r>    41.0253     0.0000    10.7188 </r>
       <r>    41.2050     0.0000    10.7188 </r>
       <r>    41.3846     0.0002    10.7188 </r>
       <r>    41.5642     0.9683    10.8927 </r>
       <r>    41.7439     0.0753    10.9063 </r>
       <r>    41.9235     0.1388    10.9312 </r>
       <r>    42.1031     0.0352    10.9375 </r>
       <r>    42.2828     0.2395    10.9805 </r>
       <r>    42.4624     0.9782    11.1562 </r>
       <r>    42.6420     0.0000    11.1562 </r>
       <r>    42.8217     0.0000    11.1562 </r>
       <r>    43.0013     0.0000    11.1563 </r>
       <r>    43.1810     0.0833    11.1712 </r>
       <r>    43.3606     0.4386    11.2500 </r>
       <r>    43.5402     0.0000    11.2500 </r>
       <r>    43.7199     0.0000    11.2500 </r>
       <r>    43.8995     0.0000    11.2500 </r>
       <r>    44.0791     0.0000    11.2500 </r>
       <r>    44.2588     0.0000    11.2500 </r>
       <r>    44.4384     0.8190    11.3971 </r>
       <r>    44.6180     0.2320    11.4388 </r>
       <r>    44.7977     1.0320    11.6242 </r>
       <r>    44.9773     0.7746    11.7633 </r>
       <r>    45.1570     0.2737    11.8125 </r>
       <r>    45.3366     0.0000    11.8125 </r>
       <r>    45.5162     0.0000    11.8125 </r>
       <r>    45.6959     0.0000    11.8125 </r>
       <r>    45.8755     0.0000    11.8125 </r>
       <r>    46.0551     0.0000    11.8125 </r>
       <r>    46.2348     0.0000    11.8125 </r>
       <r>    46.4144     0.0000    11.8125 </r>
       <r>    46.5941     0.0000    11.8125 </r>
       <r>    46.7737     0.0000    11.8125 </r>
       <r>    46.9533     0.0101    11.8143 </r>
       <r>    47.1330     0.5116    11.9062 </r>
       <r>    47.3126     0.5103    11.9979 </r>
       <r>    47.4922     0.0117    12.0000 </r>
       <r>    47.6719     0.0000    12.0000 </r>
       <r>    47.8515     0.0000    12.0000 </r>
       <r>    48.0311     0.0000    12.0000 </r>
       <r>    48.2108     0.0000    12.0000 </r>
       <r>    48.3904     0.0000    12.0000 </r>
       <r>    48.5701     0.0000    12.0000 </r>
       <r>    48.7497     0.0000    12.0000 </r>
       <r>    48.9293     0.0000    12.0000 </r>
       <r>    49.1090     0.0000    12.0000 </r>
       <r>    49.2886     0.0000    12.0000 </r>
       <r>    49.4682     0.0000    12.0000 </r>
       <r>    49.6479     0.0000    12.0000 </r>
       <r>    49.8275     0.0000    12.0000 </r>
       <r>    50.0071     0.0000    12.0000 </r>
       <r>    50.1868     0.0000    12.0000 </r>
       <r>    50.3664     0.0000    12.0000 </r>
       <r>    50.5461     0.0000    12.0000 </r>
       <r>    50.7257     0.0000    12.0000 </r>
       <r>    50.9053     0.0000    12.0000 </r>
       <r>    51.0850     0.0000    12.0000 </r>
       <r>    51.2646     0.0000    12.0000 </r>
       <r>    51.4442     0.0000    12.0000 </r>
       <r>    51.6239     0.0000    12.0000 </r>
       <r>    51.8035     0.0000    12.0000 </r>
       <r>    51.9831     0.0000    12.0000 </r>
       <r>    52.1628     0.0000    12.0000 </r>
       <r>    52.3424     0.0000    12.0000 </r>
       <r>    52.5221     0.0000    12.0000 </r>
       <r>    52.7017     0.0000    12.0000 </r>
       <r>    52.8813     0.0000    12.0000 </r>
       <r>    53.0610     0.0000    12.0000 </r>
       <r>    53.2406     0.0000    12.0000 </r>
       <r>    53.4202     0.0000    12.0000 </r>
      </set>
      <set comment="spin 2">
       <r>    -0.4707     0.0000     0.0000 </r>
       <r>    -0.2911     0.0000     0.0000 </r>
       <r>    -0.1115     0.0000     0.0000 </r>
       <r>     0.0682     0.0000     0.0000 </r>
       <r>     0.2478     0.0000     0.0000 </r>
       <r>     0.4275     0.0000     0.0000 </r>
       <r>     0.6071     0.0000     0.0000 </r>
       <r>     0.7867     0.0000     0.0000 </r>
       <r>     0.9664     0.0000     0.0000 </r>
       <r>     1.1460     0.0000     0.0000 </r>
       <r>     1.3256     0.0000     0.0000 </r>
       <r>     1.5053     0.0000     0.0000 </r>
       <r>     1.6849     0.0000     0.0000 </r>
       <r>     1.8646     0.0000     0.0000 </r>
       <r>     2.0442     0.1544     0.0277 </r>
       <r>     2.2238     0.0196     0.0312 </r>
       <r>     2.4035     0.0000     0.0312 </r>
       <r>     2.5831     0.0000     0.0312 </r>
       <r>     2.7627     0.0000     0.0312 </r>
       <r>     2.9424     0.0000     0.0312 </r>
       <r>     3.1220     0.0000     0.0312 </r>
       <r>     3.3016     0.0000     0.0313 </r>
       <r>     3.4813     0.0590     0.0418 </r>
       <r>     3.6609     0.4629     0.1250 </r>
       <r>     3.8406     0.0000     0.1250 </r>
       <r>     4.0202     0.0000     0.1250 </r>
       <r>     4.1998     0.0000     0.1250 </r>
       <r>     4.3795     0.0000     0.1250 </r>
       <r>     4.5591     0.0000     0.1250 </r>
       <r>     4.7387     0.0078     0.1264 </r>
       <r>     4.9184     0.5132     0.2186 </r>
       <r>     5.0980     0.0009     0.2187 </r>
       <r>     5.2776     0.0000     0.2188 </r>
       <r>     5.4573     0.0051     0.2197 </r>
       <r>     5.6369     0.1690     0.2500 </r>
       <r>     5.8166     0.5032     0.3404 </r>
       <r>     5.9962     0.0185     0.3437 </r>
       <r>     6.1758     0.0000     0.3438 </r>
       <r>     6.3555     0.0074     0.3451 </r>
       <r>     6.5351     0.9348     0.5130 </r>
       <r>     6.7147     1.1447     0.7187 </r>
       <r>     6.8944     0.0005     0.7188 </r>
       <r>     7.0740     0.0000     0.7188 </r>
       <r>     7.2536     0.8042     0.8632 </r>
       <r>     7.4333     1.2833     1.0937 </r>
       <r>     7.6129     0.0066     1.0949 </r>
       <r>     7.7926     1.5088     1.3660 </r>
       <r>     7.9722     0.2438     1.4098 </r>
       <r>     8.1518     1.2232     1.6295 </r>
       <r>     8.3315     0.1491     1.6563 </r>
       <r>     8.5111     0.6448     1.7721 </r>
       <r>     8.6907     0.5546     1.8717 </r>
       <r>     8.8704     2.5204     2.3245 </r>
       <r>     9.0500     0.6161     2.4351 </r>
       <r>     9.2297     0.2002     2.4711 </r>
       <r>     9.4093     1.8065     2.7956 </r>
       <r>     9.5889     1.0508     2.9844 </r>
       <r>     9.7686     0.9859     3.1615 </r>
       <r>     9.9482     0.4929     3.2500 </r>
       <r>    10.1278     0.3634     3.3153 </r>
       <r>    10.3075     1.3211     3.5526 </r>
       <r>    10.4871     1.2899     3.7843 </r>
       <r>    10.6667     1.5358     4.0602 </r>
       <r>    10.8464     0.5347     4.1563 </r>
       <r>    11.0260     0.3888     4.2261 </r>
       <r>    11.2057     1.5743     4.5089 </r>
       <r>    11.3853     1.0346     4.6947 </r>
       <r>    11.5649     2.1133     5.0744 </r>
       <r>    11.7446     1.4914     5.3423 </r>
       <r>    11.9242     0.0082     5.3437 </r>
       <r>    12.1038     0.0000     5.3438 </r>
       <r>    12.2835     0.0000     5.3438 </r>
       <r>    12.4631     0.0000     5.3438 </r>
       <r>    12.6427     0.0021     5.3441 </r>
       <r>    12.8224     0.5160     5.4368 </r>
       <r>    13.0020     0.9745     5.6119 </r>
       <r>    13.1817     0.0732     5.6250 </r>
       <r>    13.3613     0.0000     5.6250 </r>
       <r>    13.5409     0.0000     5.6250 </r>
       <r>    13.7206     0.1387     5.6499 </r>
       <r>    13.9002     0.3832     5.7187 </r>
       <r>    14.0798     0.0000     5.7188 </r>
       <r>    14.2595     0.0000     5.7188 </r>
       <r>    14.4391     0.0000     5.7188 </r>
       <r>    14.6187     0.0000     5.7188 </r>
       <r>    14.7984     0.0000     5.7188 </r>
       <r>    14.9780     0.2564     5.7648 </r>
       <r>    15.1577     0.2654     5.8125 </r>
       <r>    15.3373     0.0000     5.8125 </r>
       <r>    15.5169     0.0000     5.8125 </r>
       <r>    15.6966     0.0000     5.8125 </r>
       <r>    15.8762     0.0000     5.8125 </r>
       <r>    16.0558     0.0202     5.8161 </r>
       <r>    16.2355     1.0222     5.9998 </r>
       <r>    16.4151     0.0013     6.0000 </r>
       <r>    16.5947     0.0000     6.0000 </r>
       <r>    16.7744     0.0000     6.0000 </r>
       <r>    16.9540     0.0000     6.0000 </r>
       <r>    17.1337     0.0000     6.0000 </r>
       <r>    17.3133     0.0000     6.0000 </r>
       <r>    17.4929     0.0000     6.0000 </r>
       <r>    17.6726     0.0000     6.0000 </r>
       <r>    17.8522     0.0000     6.0000 </r>
       <r>    18.0318     0.2503     6.0450 </r>
       <r>    18.2115     0.2715     6.0937 </r>
       <r>    18.3911     0.0007     6.0939 </r>
       <r>    18.5708     0.5115     6.1858 </r>
       <r>    18.7504     0.0096     6.1875 </r>
       <r>    18.9300     0.0000     6.1875 </r>
       <r>    19.1097     0.0000     6.1875 </r>
       <r>    19.2893     0.2253     6.2280 </r>
       <r>    19.4689     0.8185     6.3750 </r>
       <r>    19.6486     0.0000     6.3750 </r>
       <r>    19.8282     0.0000     6.3750 </r>
       <r>    20.0078     0.0000     6.3750 </r>
       <r>    20.1875     0.0034     6.3756 </r>
       <r>    20.3671     0.1704     6.4062 </r>
       <r>    20.5468     0.0002     6.4062 </r>
       <r>    20.7264     0.0000     6.4062 </r>
       <r>    20.9060     0.0000     6.4063 </r>
       <r>    21.0857     0.0493     6.4151 </r>
       <r>    21.2653     0.9942     6.5937 </r>
       <r>    21.4449     0.0003     6.5938 </r>
       <r>    21.6246     0.0000     6.5938 </r>
       <r>    21.8042     0.0000     6.5938 </r>
       <r>    21.9838     0.0008     6.5939 </r>
       <r>    22.1635     0.5121     6.6859 </r>
       <r>    22.3431     0.0090     6.6875 </r>
       <r>    22.5228     0.0000     6.6875 </r>
       <r>    22.7024     0.0000     6.6875 </r>
       <r>    22.8820     0.0009     6.6877 </r>
       <r>    23.0617     1.0308     6.8728 </r>
       <r>    23.2413     0.5336     6.9687 </r>
       <r>    23.4209     0.0004     6.9688 </r>
       <r>    23.6006     0.0000     6.9688 </r>
       <r>    23.7802     0.0000     6.9688 </r>
       <r>    23.9598     0.0237     6.9730 </r>
       <r>    24.1395     0.9346     7.1409 </r>
       <r>    24.3191     0.0855     7.1562 </r>
       <r>    24.4988     0.0000     7.1562 </r>
       <r>    24.6784     0.0000     7.1563 </r>
       <r>    24.8580     0.0881     7.1721 </r>
       <r>    25.0377     0.4521     7.2533 </r>
       <r>    25.2173     1.0239     7.4372 </r>
       <r>    25.3969     0.0015     7.4375 </r>
       <r>    25.5766     0.0000     7.4375 </r>
       <r>    25.7562     0.0000     7.4375 </r>
       <r>    25.9358     0.0000     7.4375 </r>
       <r>    26.1155     0.0000     7.4375 </r>
       <r>    26.2951     0.0048     7.4384 </r>
       <r>    26.4748     1.1649     7.6476 </r>
       <r>    26.6544     0.3960     7.7187 </r>
       <r>    26.8340     0.0000     7.7188 </r>
       <r>    27.0137     0.0000     7.7188 </r>
       <r>    27.1933     0.0000     7.7188 </r>
       <r>    27.3729     0.0000     7.7188 </r>
       <r>    27.5526     0.0000     7.7188 </r>
       <r>    27.7322     0.0000     7.7188 </r>
       <r>    27.9119     0.3958     7.7899 </r>
       <r>    28.0915     0.6244     7.9020 </r>
       <r>    28.2711     0.0236     7.9062 </r>
       <r>    28.4508     0.0000     7.9062 </r>
       <r>    28.6304     0.0000     7.9063 </r>
       <r>    28.8100     0.0197     7.9098 </r>
       <r>    28.9897     0.5023     8.0000 </r>
       <r>    29.1693     0.5067     8.0910 </r>
       <r>    29.3489     0.0150     8.0938 </r>
       <r>    29.5286     0.6606     8.2124 </r>
       <r>    29.7082     0.3834     8.2813 </r>
       <r>    29.8879     0.5011     8.3713 </r>
       <r>    30.0675     0.0206     8.3750 </r>
       <r>    30.2471     0.0000     8.3750 </r>
       <r>    30.4268     0.0000     8.3750 </r>
       <r>    30.6064     0.0000     8.3750 </r>
       <r>    30.7860     0.0000     8.3750 </r>
       <r>    30.9657     0.4464     8.4552 </r>
       <r>    31.1453     0.0754     8.4688 </r>
       <r>    31.3249     0.0944     8.4857 </r>
       <r>    31.5046     0.0796     8.5000 </r>
       <r>    31.6842     0.0000     8.5000 </r>
       <r>    31.8639     0.0007     8.5001 </r>
       <r>    32.0435     0.5109     8.5919 </r>
       <r>    32.2231     0.0391     8.5989 </r>
       <r>    32.4028     0.1462     8.6252 </r>
       <r>    32.5824     0.7013     8.7512 </r>
       <r>    32.7620     0.8790     8.9091 </r>
       <r>    32.9417     0.9150     9.0734 </r>
       <r>    33.1213     0.1131     9.0937 </r>
       <r>    33.3009     0.0000     9.0938 </r>
       <r>    33.4806     0.1020     9.1121 </r>
       <r>    33.6602     0.4199     9.1875 </r>
       <r>    33.8399     0.0000     9.1875 </r>
       <r>    34.0195     0.0000     9.1875 </r>
       <r>    34.1991     0.0000     9.1875 </r>
       <r>    34.3788     0.0000     9.1875 </r>
       <r>    34.5584     0.0369     9.1941 </r>
       <r>    34.7380     0.1370     9.2187 </r>
       <r>    34.9177     0.0000     9.2188 </r>
       <r>    35.0973     0.0000     9.2188 </r>
       <r>    35.2769     0.0000     9.2188 </r>
       <r>    35.4566     0.1567     9.2469 </r>
       <r>    35.6362     0.3651     9.3125 </r>
       <r>    35.8159     0.0083     9.3140 </r>
       <r>    35.9955     0.3551     9.3778 </r>
       <r>    36.1751     1.2988     9.6111 </r>
       <r>    36.3548     0.2515     9.6562 </r>
       <r>    36.5344     0.0007     9.6564 </r>
       <r>    36.7140     1.0118     9.8381 </r>
       <r>    36.8937     0.0312     9.8437 </r>
       <r>    37.0733     0.0000     9.8438 </r>
       <r>    37.2530     0.2938     9.8965 </r>
       <r>    37.4326     0.5760    10.0000 </r>
       <r>    37.6122     0.0102    10.0018 </r>
       <r>    37.7919     0.5111    10.0936 </r>
       <r>    37.9715     0.0007    10.0938 </r>
       <r>    38.1511     0.0000    10.0938 </r>
       <r>    38.3308     0.3929    10.1643 </r>
       <r>    38.5104     0.1290    10.1875 </r>
       <r>    38.6900     0.0000    10.1875 </r>
       <r>    38.8697     0.0000    10.1875 </r>
       <r>    39.0493     0.0000    10.1875 </r>
       <r>    39.2290     0.2928    10.2401 </r>
       <r>    39.4086     0.0551    10.2500 </r>
       <r>    39.5882     0.0000    10.2500 </r>
       <r>    39.7679     0.0002    10.2500 </r>
       <r>    39.9475     0.5012    10.3401 </r>
       <r>    40.1271     0.0204    10.3438 </r>
       <r>    40.3068     0.2135    10.3821 </r>
       <r>    40.4864     0.8303    10.5312 </r>
       <r>    40.6660     0.0750    10.5447 </r>
       <r>    40.8457     0.4469    10.6250 </r>
       <r>    41.0253     0.0347    10.6312 </r>
       <r>    41.2050     0.4871    10.7187 </r>
       <r>    41.3846     0.0001    10.7188 </r>
       <r>    41.5642     0.0032    10.7193 </r>
       <r>    41.7439     0.6762    10.8408 </r>
       <r>    41.9235     0.5382    10.9375 </r>
       <r>    42.1031     0.0001    10.9375 </r>
       <r>    42.2828     0.0000    10.9375 </r>
       <r>    42.4624     0.1160    10.9583 </r>
       <r>    42.6420     1.0994    11.1558 </r>
       <r>    42.8217     0.0024    11.1562 </r>
       <r>    43.0013     0.0000    11.1562 </r>
       <r>    43.1810     0.0000    11.1563 </r>
       <r>    43.3606     0.4381    11.2349 </r>
       <r>    43.5402     0.0838    11.2500 </r>
       <r>    43.7199     0.0000    11.2500 </r>
       <r>    43.8995     0.0000    11.2500 </r>
       <r>    44.0791     0.0000    11.2500 </r>
       <r>    44.2588     0.0000    11.2500 </r>
       <r>    44.4384     0.0000    11.2500 </r>
       <r>    44.6180     0.0000    11.2500 </r>
       <r>    44.7977     0.7009    11.3759 </r>
       <r>    44.9773     0.5132    11.4681 </r>
       <r>    45.1570     0.7365    11.6004 </r>
       <r>    45.3366     1.0523    11.7894 </r>
       <r>    45.5162     0.1285    11.8125 </r>
       <r>    45.6959     0.0000    11.8125 </r>
       <r>    45.8755     0.0000    11.8125 </r>
       <r>    46.0551     0.0000    11.8125 </r>
       <r>    46.2348     0.0000    11.8125 </r>
       <r>    46.4144     0.0000    11.8125 </r>
       <r>    46.5941     0.0000    11.8125 </r>
       <r>    46.7737     0.0000    11.8125 </r>
       <r>    46.9533     0.0000    11.8125 </r>
       <r>    47.1330     0.0000    11.8125 </r>
       <r>    47.3126     0.0000    11.8125 </r>
       <r>    47.4922     0.0000    11.8125 </r>
       <r>    47.6719     0.0000    11.8125 </r>
       <r>    47.8515     0.0000    11.8125 </r>
       <r>    48.0311     0.0000    11.8125 </r>
       <r>    48.2108     0.0000    11.8125 </r>
       <r>    48.3904     0.4611    11.8953 </r>
       <r>    48.5701     0.0608    11.9062 </r>
       <r>    48.7497     0.0000    11.9062 </r>
       <r>    48.9293     0.0000    11.9062 </r>
       <r>    49.1090     0.0000    11.9062 </r>
       <r>    49.2886     0.0000    11.9062 </r>
       <r>    49.4682     0.0000    11.9062 </r>
       <r>    49.6479     0.0000    11.9062 </r>
       <r>    49.8275     0.0000    11.9062 </r>
       <r>    50.0071     0.0000    11.9062 </r>
       <r>    50.1868     0.0000    11.9062 </r>
       <r>    50.3664     0.0000    11.9062 </r>
       <r>    50.5461     0.0000    11.9062 </r>
       <r>    50.7257     0.0000    11.9063 </r>
       <r>    50.9053     0.0169    11.9093 </r>
       <r>    51.0850     0.5047    11.9999 </r>
       <r>    51.2646     0.0003    12.0000 </r>
       <r>    51.4442     0.0000    12.0000 </r>
       <r>    51.6239     0.0000    12.0000 </r>
       <r>    51.8035     0.0000    12.0000 </r>
       <r>    51.9831     0.0000    12.0000 </r>
       <r>    52.1628     0.0000    12.0000 </r>
       <r>    52.3424     0.0000    12.0000 </r>
       <r>    52.5221     0.0000    12.0000 </r>
       <r>    52.7017     0.0000    12.0000 </r>
       <r>    52.8813     0.0000    12.0000 </r>
       <r>    53.0610     0.0000    12.0000 </r>
       <r>    53.2406     0.0000    12.0000 </r>
       <r>    53.4202     0.0000    12.0000 </r>
      </set>
     </set>
    </array>
   </total>
  </dos>
 </calculation>
 <structure name="finalpos" >
  <crystal>
   <varray name="basis" >
    <v>       0.00000000       1.75500000       1.75500000 </v>
    <v>       1.75500000       0.00000000       1.75500000 </v>
    <v>       1.75500000       1.75500000       0.00000000 </v>
   </varray>
   <i name="volume">     10.81088775 </i>
   <varray name="rec_basis" >
    <v>      -0.28490028       0.28490028       0.28490028 </v>
    <v>       0.28490028      -0.28490028       0.28490028 </v>
    <v>       0.28490028       0.28490028      -0.28490028 </v>
   </varray>
  </crystal>
  <varray name="positions" >
   <v>       0.00000000       0.00000000       0.00000000 </v>
  </varray>
 </structure>
</modeling>
