    1    1    1    2
  0.1081089E+02  0.2481945E-09  0.2481945E-09  0.2481945E-09  0.5000000E-15
  1.000000000000000E-004
  CAR 
 Co fcc                                  
      9     28     12
 
  0.8333333E-01  0.8333333E-01  0.8333333E-01  0.9259259E-02
      1          1.644218        1.660685   1.000000   1.000000
      2          7.585433        9.185452   1.000000   1.000000
      3          7.725470        9.355825   1.000000   1.000000
      4          7.725470        9.355825   1.000000   1.000000
      5          8.704029       10.678483   1.000000  -0.032230
      6          8.704029       10.678483   1.000000  -0.032230
      7         32.710961       32.586454   0.000000   0.000000
      8         35.442346       35.481295   0.000000   0.000000
      9         37.403610       37.627156   0.000000   0.000000
     10         37.403610       37.627156   0.000000   0.000000
     11         41.756859       41.926557   0.000000   0.000000
     12         41.757152       41.989352   0.000000   0.000000
 
  0.2500000E+00  0.8333333E-01  0.8333333E-01  0.2777778E-01
      1          3.016879        3.057125   1.000000   1.000000
      2          7.266550        8.759489   1.000000   1.000000
      3          7.876617        9.543894   1.000000   1.000000
      4          7.967340        9.644278   1.000000   1.000001
      5          8.502011       10.414093   1.000000   0.444919
      6          8.979355       10.916635   1.000000  -0.000812
      7         28.018173       28.345781   0.000000   0.000000
      8         31.475920       31.637769   0.000000   0.000000
      9         36.603827       36.602490   0.000000   0.000000
     10         39.027698       39.226717   0.000000   0.000000
     11         39.532021       39.513189   0.000000   0.000000
     12         41.074271       41.369372   0.000000   0.000000
 
  0.4166667E+00  0.8333333E-01  0.8333333E-01  0.2777778E-01
      1          5.049589        5.564920   1.000000   1.000000
      2          7.585356        8.749263   1.000000   1.000000
      3          7.751770        9.279692   1.000000   1.000000
      4          7.820894        9.491976   1.000000   1.000000
      5          9.146163       11.028306   1.000000  -0.000043
      6          9.948563       11.711364   1.003131  -0.000000
      7         20.260781       20.913172   0.000000   0.000000
      8         30.585381       30.692900   0.000000   0.000000
      9         34.379063       34.427773   0.000000   0.000000
     10         36.432226       36.777246   0.000000   0.000000
     11         38.936248       39.230836   0.000000   0.000000
     12         40.437953       40.599729   0.000000   0.000000
 
 -0.4166667E+00  0.8333333E-01  0.8333333E-01  0.2777778E-01
      1          5.316409        6.256152   1.000000   1.000000
      2          7.409337        9.023959   1.000000   1.000000
      3          7.660246        9.387132   1.000000   1.000000
      4          8.675284        9.573211   1.000000   1.000000
      5          9.624352       11.567944   1.000000  -0.000000
      6         11.117743       12.234338  -0.000002  -0.000000
      7         16.797148       17.777194   0.000000   0.000000
      8         30.993756       30.911617   0.000000   0.000000
      9         33.531335       33.865034   0.000000   0.000000
     10         33.920002       34.167126   0.000000   0.000000
     11         40.019469       40.245566   0.000000   0.000000
     12         40.046050       40.285606   0.000000   0.000000
 
 -0.2500000E+00  0.8333333E-01  0.8333333E-01  0.2777778E-01
      1          4.539872        4.779034   1.000000   1.000000
      2          7.312722        8.537787   1.000000   1.000000
      3          7.681182        9.392697   1.000000   1.000000
      4          7.883470        9.604140   1.000000   1.000000
      5          9.192530       10.967038   1.000000  -0.000234
      6          9.281541       11.222422   1.000000  -0.000000
      7         22.666971       23.195587   0.000000   0.000000
      8         32.290988       32.169663   0.000000   0.000000
      9         33.055876       33.415269   0.000000   0.000000
     10         36.314664       36.652487   0.000000   0.000000
     11         40.018676       40.173598   0.000000   0.000000
     12         42.546998       42.721020   0.000000   0.000000
 
 -0.8333333E-01  0.8333333E-01  0.8333333E-01  0.2777778E-01
      1          2.354046        2.377658   1.000000   1.000000
      2          7.345961        8.895016   1.000000   1.000000
      3          7.900329        9.549288   1.000000   1.000000
      4          7.910064        9.559301   1.000000   1.000000
      5          8.499268       10.417932   1.000000   0.428830
      6          8.834033       10.816623   1.000000  -0.006166
      7         30.733265       30.918767   0.000000   0.000000
      8         33.757807       33.700500   0.000000   0.000000
      9         34.500376       34.831816   0.000000   0.000000
     10         37.186886       37.244416   0.000000   0.000000
     11         41.342264       41.601901   0.000000   0.000000
     12         43.658995       44.203817   0.000000   0.000000
 
  0.2500000E+00  0.2500000E+00  0.8333333E-01  0.2777778E-01
      1          3.627219        3.699524   1.000000   1.000000
      2          6.915013        8.385761   1.000000   1.000000
      3          7.958542        9.688366   1.000000   1.000003
      4          8.261526        9.953589   1.000000   1.003451
      5          8.576841       10.308281   1.000000   0.849587
      6          9.061099       11.054915   1.000000  -0.000019
      7         28.499337       28.820392   0.000000   0.000000
      8         31.490666       31.837036   0.000000   0.000000
      9         31.994276       32.022504   0.000000   0.000000
     10         34.119813       34.279635   0.000000   0.000000
     11         39.077093       39.726130   0.000000   0.000000
     12         45.169593       45.183361   0.000000   0.000000
 
  0.4166667E+00  0.2500000E+00  0.8333333E-01  0.5555556E-01
      1          5.349652        5.763088   1.000000   1.000000
      2          6.619058        7.972030   1.000000   1.000000
      3          7.534847        9.094890   1.000000   1.000000
      4          8.544798       10.322797   1.000000   0.804675
      5          9.166877       10.982647   1.000000  -0.000155
      6         10.286575       11.940905   0.907222  -0.000000
      7         23.613790       24.072344   0.000000   0.000000
      8         27.100955       27.422692   0.000000   0.000000
      9         29.573542       29.889465   0.000000   0.000000
     10         34.894914       35.086410   0.000000   0.000000
     11         39.880043       40.240991   0.000000   0.000000
     12         44.109420       44.359883   0.000000   0.000000
 
 -0.4166667E+00  0.2500000E+00  0.8333333E-01  0.5555556E-01
      1          6.031807        7.113217   1.000000   1.000000
      2          6.730532        8.024850   1.000000   1.000000
      3          7.613337        8.913386   1.000000   1.000000
      4          8.251413       10.051500   1.000000   1.016519
      5          9.577484       11.483747   1.000000  -0.000000
      6         13.680074       14.563176  -0.000000  -0.000000
      7         17.236471       18.049214   0.000000   0.000000
      8         26.144647       26.501611   0.000000   0.000000
      9         28.094940       28.457519   0.000000   0.000000
     10         35.018057       35.152233   0.000000   0.000000
     11         41.450889       41.627964   0.000000   0.000000
     12         46.648921       47.170636   0.000000   0.000000
 
 -0.2500000E+00  0.2500000E+00  0.8333333E-01  0.5555556E-01
      1          5.935416        6.533105   1.000000   1.000000
      2          6.956629        8.231322   1.000000   1.000000
      3          7.158216        8.712889   1.000000   1.000000
      4          8.322802       10.134164   1.000000   1.033869
      5          9.055719       10.863179   1.000000  -0.002587
      6         11.482919       12.926606  -0.000000  -0.000000
      7         21.187722       21.756407   0.000000   0.000000
      8         25.006192       25.403854   0.000000   0.000000
      9         30.613844       30.898126   0.000000   0.000000
     10         36.863912       36.992069   0.000000   0.000000
     11         39.894312       40.010651   0.000000   0.000000
     12         45.192279       45.592058   0.000000   0.000000
 
 -0.8333333E-01  0.2500000E+00  0.8333333E-01  0.5555556E-01
      1          4.186856        4.300523   1.000000   1.000000
      2          6.993320        8.412516   1.000000   1.000000
      3          7.719000        9.413388   1.000000   1.000000
      4          8.174468        9.905686   1.000000   1.001284
      5          8.650030       10.456282   1.000000   0.275865
      6          9.437342       11.325164   1.000000  -0.000000
      7         25.621649       26.037322   0.000000   0.000000
      8         29.142418       29.412060   0.000000   0.000000
      9         34.181563       34.296171   0.000000   0.000000
     10         36.567506       36.724143   0.000000   0.000000
     11         40.935641       41.171290   0.000000   0.000000
     12         41.794455       42.096597   0.000000   0.000000
 
  0.4166667E+00  0.4166667E+00  0.8333333E-01  0.2777778E-01
      1          5.290997        6.222333   1.000000   1.000000
      2          6.036452        7.367415   1.000000   1.000000
      3          8.874816       10.145834   1.000000   1.035080
      4          9.159506       11.050712   1.000000  -0.000022
      5          9.603579       11.566240   1.000000  -0.000000
      6         10.834159       11.984435  -0.004517  -0.000000
      7         24.064801       24.552305   0.000000   0.000000
      8         24.979380       25.342376   0.000000   0.000000
      9         26.854447       27.100818   0.000000   0.000000
     10         31.474996       31.806917   0.000000   0.000000
     11         35.797453       36.240020   0.000000   0.000000
     12         47.231755       50.880351   0.000000   0.000000
 
 -0.4166667E+00  0.4166667E+00  0.8333333E-01  0.5555556E-01
      1          5.564420        6.786188   1.000000   1.000000
      2          6.082855        7.367431   1.000000   1.000000
      3          8.420859        9.758469   1.000000   1.000027
      4          9.123911       11.093660   1.000000  -0.000006
      5          9.781143       11.656305   1.000053  -0.000000
      6         14.505104       15.147114  -0.000000  -0.000000
      7         20.677703       21.299521   0.000000   0.000000
      8         21.548822       22.075579   0.000000   0.000000
      9         24.919961       25.230661   0.000000   0.000000
     10         33.609816       33.865515   0.000000   0.000000
     11         38.786560       39.173452   0.000000   0.000000
     12         47.156106       48.296133   0.000000   0.000000
 
 -0.2500000E+00  0.4166667E+00  0.8333333E-01  0.5555556E-01
      1          6.299647        7.603840   1.000000   1.000000
      2          6.512035        7.670241   1.000000   1.000000
      3          7.411096        8.707282   1.000000   1.000000
      4          8.561307       10.443072   1.000000   0.326450
      5          9.495249       11.342916   1.000000  -0.000000
      6         15.418427       16.194325  -0.000000   0.000000
      7         17.703703       18.377923   0.000000   0.000000
      8         22.311906       22.860453   0.000000   0.000000
      9         27.321681       27.678669   0.000000   0.000000
     10         34.927541       35.098284   0.000000   0.000000
     11         43.338104       43.427673   0.000000   0.000000
     12         46.435959       47.372796   0.000000   0.000000
 
 -0.8333333E-01  0.4166667E+00  0.8333333E-01  0.5555556E-01
      1          5.557205        6.395811   1.000000   1.000000
      2          7.218017        8.573300   1.000000   1.000000
      3          7.793133        9.078390   1.000000   1.000000
      4          7.953511        9.669110   1.000000   1.000001
      5          9.461596       11.359483   1.000000  -0.000000
      6         11.360416       12.665136  -0.000000  -0.000000
      7         18.422092       19.180926   0.000000   0.000000
      8         28.823999       29.031878   0.000000   0.000000
      9         31.178634       31.468127   0.000000   0.000000
     10         35.271523       35.414628   0.000000   0.000000
     11         39.970484       40.208993   0.000000   0.000000
     12         43.439654       43.571681   0.000000   0.000000
 
 -0.4166667E+00 -0.4166667E+00  0.8333333E-01  0.2777778E-01
      1          5.210965        6.385074   1.000000   1.000000
      2          5.813481        7.112309   1.000000   1.000000
      3          9.405266       10.931496   1.000000  -0.000571
      4          9.416467       11.432453   1.000000  -0.000000
      5          9.806156       11.698895   1.000108  -0.000000
      6         13.012371       13.476629  -0.000000  -0.000000
      7         20.681646       21.485373   0.000000   0.000000
      8         23.895795       24.170366   0.000000   0.000000
      9         25.759331       25.953082   0.000000   0.000000
     10         31.207819       31.583050   0.000000   0.000000
     11         35.430157       35.866387   0.000000   0.000000
     12         47.348471       51.078995   0.000000   0.000000
 
 -0.2500000E+00 -0.4166667E+00  0.8333333E-01  0.5555556E-01
      1          5.679978        6.667411   1.000000   1.000000
      2          6.272815        7.583090   1.000000   1.000000
      3          7.931625        9.244601   1.000000   1.000000
      4          8.952242       10.816691   1.000000  -0.006159
      5          9.558141       11.445282   1.000000  -0.000000
      6         12.095498       13.226013  -0.000000  -0.000000
      7         22.057621       22.510521   0.000000   0.000000
      8         24.622002       25.082126   0.000000   0.000000
      9         25.922935       26.280769   0.000000   0.000000
     10         34.002650       34.230893   0.000000   0.000000
     11         39.105329       39.475938   0.000000   0.000000
     12         46.072631       46.477111   0.000000   0.000000
 
 -0.2500000E+00 -0.2500000E+00  0.8333333E-01  0.2777778E-01
      1          4.908281        5.263554   1.000000   1.000000
      2          6.435605        7.827068   1.000000   1.000000
      3          8.067108        9.549040   1.000000   1.000000
      4          8.721816       10.490553   1.000000   0.160062
      5          9.312064       10.932991   1.000000  -0.000551
      6          9.333927       11.329581   1.000000  -0.000000
      7         26.405098       26.756759   0.000000   0.000000
      8         28.648862       28.931979   0.000000   0.000000
      9         28.851733       29.161242   0.000000   0.000000
     10         32.149839       32.410938   0.000000   0.000000
     11         36.830181       37.332783   0.000000   0.000000
     12         47.200381       48.774470   0.000000   0.000000
 
  0.2500000E+00  0.2500000E+00  0.2500000E+00  0.9259259E-02
      1          3.587829        3.674652   1.000000   1.000000
      2          7.343573        8.713362   1.000000   1.000000
      3          7.842896        9.543941   1.000000   1.000000
      4          7.842896        9.543941   1.000000   1.000000
      5          8.877231       10.791102   1.000000  -0.009357
      6          8.877231       10.791102   1.000000  -0.009357
      7         25.113956       25.548367   0.000000   0.000000
      8         33.708768       33.463870   0.000000   0.000000
      9         36.068404       36.425200   0.000000   0.000000
     10         36.068404       36.425200   0.000000   0.000000
     11         41.323845       41.507938   0.000000   0.000000
     12         41.323845       41.507938   0.000000   0.000000
 
  0.4166667E+00  0.2500000E+00  0.2500000E+00  0.2777778E-01
      1          5.100027        5.358344   1.000000   1.000000
      2          7.061849        8.389547   1.000000   1.000000
      3          7.516177        9.150327   1.000000   1.000000
      4          8.095615        9.900638   1.000000   1.001147
      5          8.680153       10.478109   1.000000   0.199205
      6         10.215802       11.973072   1.015679  -0.000000
      7         23.179096       23.685439   0.000000   0.000000
      8         26.839367       27.180985   0.000000   0.000000
      9         35.128507       35.121278   0.000000   0.000000
     10         36.075337       36.419375   0.000000   0.000000
     11         40.331298       40.299427   0.000000   0.000000
     12         41.839784       42.119907   0.000000   0.000000
 
 -0.4166667E+00  0.2500000E+00  0.2500000E+00  0.2777778E-01
      1          6.267791        7.184642   1.000000   1.000000
      2          6.805904        8.183593   1.000000   1.000000
      3          7.313872        8.611071   1.000000   1.000000
      4          8.300413       10.151184   1.000000   1.035368
      5          9.186365       11.010474   1.000000  -0.000072
      6         13.121962       14.228766  -0.000000  -0.000000
      7         19.188109       19.839394   0.000000   0.000000
      8         23.367283       23.842138   0.000000   0.000000
      9         31.483533       31.840029   0.000000   0.000000
     10         33.087782       33.192715   0.000000   0.000000
     11         44.232956       44.216972   0.000000   0.000000
     12         44.629694       44.802275   0.000000   0.000000
 
 -0.2500000E+00  0.2500000E+00  0.2500000E+00  0.2777778E-01
      1          5.854071        6.915963   1.000000   1.000000
      2          6.492717        7.736933   1.000000   1.000000
      3          7.763285        9.080933   1.000000   1.000000
      4          8.490013       10.318754   1.000000   0.817673
      5          9.681994       11.622316   1.000002  -0.000000
      6         12.783578       13.815146  -0.000000  -0.000000
      7         19.190347       19.789640   0.000000   0.000000
      8         25.218295       25.650776   0.000000   0.000000
      9         28.787188       29.090952   0.000000   0.000000
     10         32.378995       32.617441   0.000000   0.000000
     11         42.831979       43.165985   0.000000   0.000000
     12         46.407450       46.566942   0.000000   0.000000
 
  0.4166667E+00  0.4166667E+00  0.2500000E+00  0.2777778E-01
      1          5.441206        6.041314   1.000000   1.000000
      2          6.955369        8.182259   1.000000   1.000000
      3          7.559155        9.090775   1.000000   1.000000
      4          8.118432        9.878956   1.000000   1.000697
      5          9.577864       11.535491   1.000000  -0.000000
      6         10.502281       11.946536   0.126527  -0.000000
      7         20.686302       21.276037   0.000000   0.000000
      8         29.481230       29.651018   0.000000   0.000000
      9         30.566498       30.899528   0.000000   0.000000
     10         33.240566       33.506796   0.000000   0.000000
     11         43.319162       43.428050   0.000000   0.000000
     12         44.044659       44.381603   0.000000   0.000000
 
 -0.4166667E+00  0.4166667E+00  0.2500000E+00  0.5555556E-01
      1          6.232414        7.300457   1.000000   1.000000
      2          6.635543        7.934278   1.000000   1.000000
      3          7.180321        8.507645   1.000000   1.000000
      4          8.634880       10.496096   1.000000   0.143795
      5          9.482635       11.326112   1.000000  -0.000000
      6         13.647831       14.643311  -0.000000  -0.000000
      7         19.679122       20.260615   0.000000   0.000000
      8         23.676713       24.115032   0.000000   0.000000
      9         25.935298       26.354546   0.000000   0.000000
     10         37.715668       37.836381   0.000000   0.000000
     11         40.156503       40.289481   0.000000   0.000000
     12         44.729450       45.370886   0.000000   0.000000
 
 -0.2500000E+00  0.4166667E+00  0.2500000E+00  0.5555556E-01
      1          6.027145        7.310639   1.000000   1.000000
      2          6.598098        7.863564   1.000000   1.000000
      3          7.405918        8.693047   1.000000   1.000000
      4          8.730675       10.633063   1.000000  -0.034755
      5          9.772184       11.639696   1.000041  -0.000000
      6         16.449770       17.102159   0.000000   0.000000
      7         18.757096       19.321729   0.000000   0.000000
      8         21.664972       22.267460   0.000000   0.000000
      9         23.326794       23.768626   0.000000   0.000000
     10         37.650549       37.801072   0.000000   0.000000
     11         42.098148       42.248047   0.000000   0.000000
     12         43.886935       44.227185   0.000000   0.000000
 
 -0.4166667E+00 -0.4166667E+00  0.2500000E+00  0.2777778E-01
      1          5.851917        7.139717   1.000000   1.000000
      2          6.278620        7.491112   1.000000   1.000000
      3          8.028431        9.323555   1.000000   1.000000
      4          8.843594       10.768611   1.000000  -0.013020
      5          9.609983       11.483914   1.000000  -0.000000
      6         15.560829       16.246392  -0.000000   0.000000
      7         18.197665       18.776450   0.000000   0.000000
      8         21.509335       22.156474   0.000000   0.000000
      9         27.857272       28.142981   0.000000   0.000000
     10         32.149879       32.416986   0.000000   0.000000
     11         42.508256       42.887447   0.000000   0.000000
     12         47.237208       48.390460   0.000000   0.000000
 
  0.4166667E+00  0.4166667E+00  0.4166667E+00  0.9259259E-02
      1          5.089538        5.870386   1.000000   1.000000
      2          7.589237        9.306427   1.000000   1.000000
      3          7.589237        9.306427   1.000000   1.000000
      4          9.148955        9.461771   1.000000   1.000000
      5          9.502526       11.435245   1.000000  -0.000000
      6          9.502526       11.435245   1.000000  -0.000000
      7         18.069897       18.905251   0.000000   0.000000
      8         32.271086       31.974791   0.000000   0.000000
      9         35.437689       35.775880   0.000000   0.000000
     10         35.437689       35.775880   0.000000   0.000000
     11         38.420896       38.701058   0.000000   0.000000
     12         38.420896       38.701058   0.000000   0.000000
 
 -0.4166667E+00  0.4166667E+00  0.4166667E+00  0.2777778E-01
      1          5.742987        6.741596   1.000000   1.000000
      2          7.075266        8.482461   1.000000   1.000000
      3          7.940076        9.132318   1.000000   1.000000
      4          7.951580        9.710343   1.000000   1.000006
      5          9.481334       11.387793   1.000000  -0.000000
      6         12.672137       13.650293  -0.000000  -0.000000
      7         16.999815       17.903693   0.000000   0.000000
      8         27.302661       27.600610   0.000000   0.000000
      9         32.169553       32.514356   0.000000   0.000000
     10         33.102440       33.181029   0.000000   0.000000
     11         42.260476       42.499287   0.000000   0.000000
     12         42.570839       42.676455   0.000000   0.000000
