   1   1   0   0
  0.1081089E+02  0.2481945E-09  0.2481945E-09  0.2481945E-09  0.5000000E-15
  1.000000000000000E-004
  CAR 
 Co-fcc                                  
     53.56029834     -0.82790991  301     10.42312145      1.00000000
     -0.828  0.0000E+00  0.0000E+00  0.0000E+00  0.0000E+00
     -0.647  0.0000E+00  0.0000E+00  0.0000E+00  0.0000E+00
     -0.465  0.0000E+00  0.0000E+00  0.0000E+00  0.0000E+00
     -0.284  0.0000E+00  0.0000E+00  0.0000E+00  0.0000E+00
     -0.103  0.0000E+00  0.0000E+00  0.0000E+00  0.0000E+00
      0.079  0.0000E+00  0.0000E+00  0.0000E+00  0.0000E+00
      0.260  0.0000E+00  0.0000E+00  0.0000E+00  0.0000E+00
      0.441  0.0000E+00  0.0000E+00  0.0000E+00  0.0000E+00
      0.622  0.0000E+00  0.0000E+00  0.0000E+00  0.0000E+00
      0.804  0.0000E+00  0.0000E+00  0.0000E+00  0.0000E+00
      0.985  0.0000E+00  0.0000E+00  0.0000E+00  0.0000E+00
      1.166  0.0000E+00  0.0000E+00  0.0000E+00  0.0000E+00
      1.348  0.0000E+00  0.0000E+00  0.0000E+00  0.0000E+00
      1.529  0.2814E-04  0.4871E-05  0.5101E-05  0.8832E-06
      1.710  0.4946E-01  0.4692E-01  0.8971E-02  0.8507E-02
      1.892  0.1589E-02  0.4149E-02  0.9259E-02  0.9259E-02
      2.073  0.1361E-15  0.0000E+00  0.9259E-02  0.9259E-02
      2.254  0.3581E-03  0.3575E-04  0.9324E-02  0.9266E-02
      2.435  0.1512E+00  0.1453E+00  0.3674E-01  0.3560E-01
      2.617  0.1647E-02  0.7921E-02  0.3704E-01  0.3704E-01
      2.798  0.4544E-10  0.1703E-13  0.3704E-01  0.3704E-01
      2.979  0.2200E-01  0.2093E-02  0.4102E-01  0.3742E-01
      3.161  0.1312E+00  0.1509E+00  0.6481E-01  0.6477E-01
      3.342  0.3707E-05  0.2674E-03  0.6481E-01  0.6481E-01
      3.523  0.1977E-02  0.4987E-06  0.6517E-01  0.6481E-01
      3.704  0.2001E+00  0.1255E+00  0.1014E+00  0.8757E-01
      3.886  0.2233E-02  0.7877E-01  0.1019E+00  0.1019E+00
      4.067  0.1089E-03  0.1104E-07  0.1019E+00  0.1019E+00
      4.248  0.2938E+00  0.2113E-01  0.1551E+00  0.1057E+00
      4.430  0.1263E-01  0.2853E+00  0.1574E+00  0.1574E+00
      4.611  0.1497E+00  0.4123E-04  0.1846E+00  0.1574E+00
      4.792  0.3410E-02  0.9823E-01  0.1852E+00  0.1752E+00
      4.973  0.1510E+00  0.5499E-01  0.2126E+00  0.1852E+00
      5.155  0.3584E+00  0.1527E-03  0.2776E+00  0.1852E+00
      5.336  0.5145E+00  0.1898E+00  0.3708E+00  0.2196E+00
      5.517  0.4771E+00  0.1297E+00  0.4573E+00  0.2431E+00
      5.699  0.7793E+00  0.1501E+00  0.5986E+00  0.2703E+00
      5.880  0.6331E+00  0.3265E+00  0.7134E+00  0.3295E+00
      6.061  0.1069E+01  0.1290E+00  0.9073E+00  0.3529E+00
      6.243  0.6986E+00  0.2040E+00  0.1034E+01  0.3899E+00
      6.424  0.9518E+00  0.5159E+00  0.1206E+01  0.4834E+00
      6.605  0.9051E+00  0.4020E+00  0.1371E+01  0.5563E+00
      6.786  0.8998E+00  0.5853E+00  0.1534E+01  0.6624E+00
      6.968  0.6402E+00  0.3179E+00  0.1650E+01  0.7201E+00
      7.149  0.9030E+00  0.5066E+00  0.1813E+01  0.8119E+00
      7.330  0.1170E+01  0.7855E+00  0.2026E+01  0.9543E+00
      7.512  0.1161E+01  0.6726E+00  0.2236E+01  0.1076E+01
      7.693  0.1384E+01  0.8843E+00  0.2487E+01  0.1237E+01
      7.874  0.1456E+01  0.5601E+00  0.2751E+01  0.1338E+01
      8.055  0.1839E+01  0.9786E+00  0.3084E+01  0.1516E+01
      8.237  0.8624E+00  0.5168E+00  0.3240E+01  0.1609E+01
      8.418  0.9243E+00  0.5750E+00  0.3408E+01  0.1713E+01
      8.599  0.1370E+01  0.1091E+01  0.3656E+01  0.1911E+01
      8.781  0.1478E+01  0.1363E+01  0.3924E+01  0.2158E+01
      8.962  0.8186E+00  0.5277E+00  0.4073E+01  0.2254E+01
      9.143  0.1164E+01  0.1197E+01  0.4284E+01  0.2471E+01
      9.325  0.1092E+01  0.8685E+00  0.4482E+01  0.2629E+01
      9.506  0.1681E+01  0.1036E+01  0.4786E+01  0.2816E+01
      9.687  0.1570E+01  0.1458E+01  0.5071E+01  0.3081E+01
      9.868  0.8276E+00  0.7454E+00  0.5221E+01  0.3216E+01
     10.050  0.1585E+00  0.7865E+00  0.5250E+01  0.3358E+01
     10.231  0.1259E+00  0.7800E+00  0.5273E+01  0.3500E+01
     10.412  0.3349E+00  0.8258E+00  0.5333E+01  0.3649E+01
     10.594  0.1517E+00  0.1354E+01  0.5361E+01  0.3895E+01
     10.775  0.8338E-02  0.5334E+00  0.5363E+01  0.3992E+01
     10.956  0.1455E+00  0.1340E+01  0.5389E+01  0.4234E+01
     11.137  0.1105E+00  0.1321E+01  0.5409E+01  0.4474E+01
     11.319  0.8193E-01  0.5867E+00  0.5424E+01  0.4580E+01
     11.500  0.4828E+00  0.1993E+01  0.5511E+01  0.4942E+01
     11.681  0.9091E-01  0.1329E+01  0.5528E+01  0.5183E+01
     11.863  0.2303E-08  0.3757E+00  0.5528E+01  0.5251E+01
     12.044  0.2372E-01  0.7479E+00  0.5532E+01  0.5386E+01
     12.225  0.2827E+00  0.7050E-01  0.5583E+01  0.5399E+01
     12.407  0.3238E-04  0.9645E-01  0.5583E+01  0.5417E+01
     12.588  0.1418E-02  0.3633E-02  0.5584E+01  0.5417E+01
     12.769  0.2055E+00  0.3022E+00  0.5621E+01  0.5472E+01
     12.950  0.1057E+00  0.2224E+00  0.5640E+01  0.5512E+01
     13.132  0.2423E+00  0.8563E-01  0.5684E+01  0.5528E+01
     13.313  0.5794E-01  0.3029E+00  0.5694E+01  0.5583E+01
     13.494  0.2518E-05  0.1065E+00  0.5694E+01  0.5602E+01
     13.676  0.3840E+00  0.1633E+00  0.5764E+01  0.5632E+01
     13.857  0.2289E+00  0.1723E+00  0.5806E+01  0.5663E+01
     14.038  0.7633E-07  0.2011E-01  0.5806E+01  0.5667E+01
     14.219  0.1191E-15  0.5700E-01  0.5806E+01  0.5677E+01
     14.401  0.5126E-03  0.9622E-01  0.5806E+01  0.5694E+01
     14.582  0.3016E+00  0.2211E+00  0.5860E+01  0.5735E+01
     14.763  0.4330E-02  0.3917E+00  0.5861E+01  0.5806E+01
     14.945  0.0000E+00  0.1297E-03  0.5861E+01  0.5806E+01
     15.126  0.1701E-16  0.7993E-01  0.5861E+01  0.5820E+01
     15.307  0.2764E-03  0.2265E+00  0.5861E+01  0.5861E+01
     15.489  0.3026E+00  0.1107E-05  0.5916E+01  0.5861E+01
     15.670  0.1566E+00  0.0000E+00  0.5944E+01  0.5861E+01
     15.851  0.1471E-03  0.0000E+00  0.5944E+01  0.5861E+01
     16.032  0.0000E+00  0.5731E-06  0.5944E+01  0.5861E+01
     16.214  0.4254E-11  0.2377E+00  0.5944E+01  0.5904E+01
     16.395  0.1930E-01  0.2220E+00  0.5948E+01  0.5944E+01
     16.576  0.2871E+00  0.2437E-05  0.6000E+01  0.5944E+01
     16.758  0.2124E-01  0.0000E+00  0.6004E+01  0.5944E+01
     16.939  0.1389E+00  0.4879E-06  0.6029E+01  0.5944E+01
     17.120  0.1465E+00  0.2085E+00  0.6056E+01  0.5982E+01
     17.301  0.2968E+00  0.9790E-01  0.6109E+01  0.6000E+01
     17.483  0.9562E-02  0.3342E-08  0.6111E+01  0.6000E+01
     17.664  0.4145E-01  0.8625E-04  0.6119E+01  0.6000E+01
     17.845  0.2650E+00  0.1552E+00  0.6167E+01  0.6028E+01
     18.027  0.5910E-02  0.2265E+00  0.6168E+01  0.6069E+01
     18.208  0.1403E+00  0.2311E+00  0.6193E+01  0.6111E+01
     18.389  0.1140E+00  0.1868E+00  0.6214E+01  0.6145E+01
     18.571  0.2505E+00  0.1197E+00  0.6259E+01  0.6167E+01
     18.752  0.1371E+00  0.3560E-01  0.6284E+01  0.6173E+01
     18.933  0.1694E+00  0.1569E+00  0.6315E+01  0.6202E+01
     19.114  0.5522E-02  0.2002E-01  0.6316E+01  0.6205E+01
     19.296  0.3005E+00  0.3655E+00  0.6370E+01  0.6271E+01
     19.477  0.3764E-03  0.2391E+00  0.6370E+01  0.6315E+01
     19.658  0.8691E-01  0.1550E-04  0.6386E+01  0.6315E+01
     19.840  0.2195E+00  0.2147E+00  0.6426E+01  0.6354E+01
     20.021  0.8002E-06  0.9168E-01  0.6426E+01  0.6370E+01
     20.202  0.7771E-02  0.1397E-01  0.6427E+01  0.6373E+01
     20.383  0.1454E+00  0.2924E+00  0.6454E+01  0.6426E+01
     20.565  0.3966E-03  0.8957E-04  0.6454E+01  0.6426E+01
     20.746  0.5931E+00  0.1436E-06  0.6561E+01  0.6426E+01
     20.927  0.1939E-01  0.9822E-01  0.6565E+01  0.6444E+01
     21.109  0.4049E-02  0.5500E-01  0.6566E+01  0.6454E+01
     21.290  0.3018E+00  0.2147E+00  0.6620E+01  0.6493E+01
     21.471  0.2734E-01  0.2953E+00  0.6625E+01  0.6546E+01
     21.653  0.5457E+00  0.1033E+00  0.6724E+01  0.6565E+01
     21.834  0.1936E+00  0.3012E+00  0.6759E+01  0.6620E+01
     22.015  0.3594E-01  0.1722E-01  0.6766E+01  0.6623E+01
     22.196  0.2707E+00  0.4324E+00  0.6815E+01  0.6701E+01
     22.378  0.2970E+00  0.3210E+00  0.6869E+01  0.6759E+01
     22.559  0.9414E-02  0.2793E+00  0.6870E+01  0.6810E+01
     22.740  0.1502E+00  0.2755E-01  0.6898E+01  0.6815E+01
     22.922  0.2808E-02  0.2926E+00  0.6898E+01  0.6868E+01
     23.103  0.2473E-02  0.1431E-01  0.6899E+01  0.6870E+01
     23.284  0.1878E+00  0.1516E+00  0.6933E+01  0.6898E+01
     23.465  0.4222E+00  0.1027E-02  0.7009E+01  0.6898E+01
     23.647  0.3161E+00  0.2002E-01  0.7066E+01  0.6902E+01
     23.828  0.3015E+00  0.4760E+00  0.7121E+01  0.6988E+01
     24.009  0.1580E+00  0.1280E+00  0.7150E+01  0.7011E+01
     24.191  0.1441E+00  0.7052E+00  0.7176E+01  0.7139E+01
     24.372  0.2678E-04  0.4978E-01  0.7176E+01  0.7148E+01
     24.553  0.8206E-02  0.7673E-01  0.7177E+01  0.7162E+01
     24.735  0.2980E+00  0.7649E-01  0.7231E+01  0.7176E+01
     24.916  0.1477E+00  0.3699E-06  0.7258E+01  0.7176E+01
     25.097  0.6336E+00  0.2009E+00  0.7373E+01  0.7212E+01
     25.278  0.1828E+00  0.3891E+00  0.7406E+01  0.7283E+01
     25.460  0.6632E-02  0.4645E+00  0.7407E+01  0.7367E+01
     25.641  0.2183E+00  0.1275E+00  0.7447E+01  0.7390E+01
     25.822  0.2366E+00  0.9491E-01  0.7490E+01  0.7407E+01
     26.004  0.6063E+00  0.1912E+00  0.7600E+01  0.7442E+01
     26.185  0.2793E+00  0.2694E+00  0.7650E+01  0.7491E+01
     26.366  0.5951E-01  0.4928E+00  0.7661E+01  0.7580E+01
     26.547  0.1321E+00  0.3948E+00  0.7685E+01  0.7652E+01
     26.729  0.1735E-03  0.6264E-01  0.7685E+01  0.7663E+01
     26.910  0.2941E+00  0.1214E+00  0.7739E+01  0.7685E+01
     27.091  0.1337E+00  0.6022E-01  0.7763E+01  0.7696E+01
     27.273  0.2414E+00  0.2454E+00  0.7807E+01  0.7741E+01
     27.454  0.4031E+00  0.2479E+00  0.7880E+01  0.7786E+01
     27.635  0.2830E-04  0.2192E+00  0.7880E+01  0.7825E+01
     27.817  0.1938E-01  0.2997E+00  0.7883E+01  0.7880E+01
     27.998  0.1786E+00  0.1901E-04  0.7916E+01  0.7880E+01
     28.179  0.4124E+00  0.1290E+00  0.7990E+01  0.7903E+01
     28.360  0.2577E-02  0.1250E+00  0.7991E+01  0.7926E+01
     28.542  0.1360E+00  0.3561E+00  0.8015E+01  0.7990E+01
     28.723  0.1739E+00  0.3236E-02  0.8047E+01  0.7991E+01
     28.904  0.5956E+00  0.1841E+00  0.8155E+01  0.8024E+01
     29.086  0.3068E-01  0.4768E+00  0.8160E+01  0.8111E+01
     29.267  0.2896E+00  0.2578E+00  0.8213E+01  0.8157E+01
     29.448  0.2710E-01  0.2584E+00  0.8218E+01  0.8204E+01
     29.629  0.4155E+00  0.8951E-01  0.8293E+01  0.8220E+01
     29.811  0.1709E-01  0.1158E+00  0.8296E+01  0.8241E+01
     29.992  0.0000E+00  0.3020E+00  0.8296E+01  0.8296E+01
     30.173  0.0000E+00  0.6008E-03  0.8296E+01  0.8296E+01
     30.355  0.1747E-09  0.0000E+00  0.8296E+01  0.8296E+01
     30.536  0.4691E-01  0.6785E-06  0.8305E+01  0.8296E+01
     30.717  0.6155E+00  0.1154E+00  0.8416E+01  0.8317E+01
     30.899  0.1042E+00  0.3617E+00  0.8435E+01  0.8383E+01
     31.080  0.1524E+00  0.4422E+00  0.8463E+01  0.8463E+01
     31.261  0.4471E+00  0.6522E-06  0.8544E+01  0.8463E+01
     31.442  0.9957E-01  0.6995E-01  0.8562E+01  0.8476E+01
     31.624  0.5262E+00  0.4220E+00  0.8657E+01  0.8552E+01
     31.805  0.2176E-04  0.2435E+00  0.8657E+01  0.8596E+01
     31.986  0.6287E-01  0.3930E+00  0.8669E+01  0.8668E+01
     32.168  0.3770E+00  0.2220E+00  0.8737E+01  0.8708E+01
     32.349  0.3991E+00  0.8938E-01  0.8810E+01  0.8724E+01
     32.530  0.1314E+00  0.4022E+00  0.8833E+01  0.8797E+01
     32.711  0.2568E-01  0.2513E+00  0.8838E+01  0.8842E+01
     32.893  0.2539E-01  0.6378E-03  0.8843E+01  0.8843E+01
     33.074  0.1931E+00  0.2476E-03  0.8878E+01  0.8843E+01
     33.255  0.3683E+00  0.2975E+00  0.8944E+01  0.8897E+01
     33.437  0.5203E-01  0.1338E+00  0.8954E+01  0.8921E+01
     33.618  0.3335E+00  0.2337E+00  0.9014E+01  0.8963E+01
     33.799  0.3110E+00  0.1650E+00  0.9071E+01  0.8993E+01
     33.981  0.2474E+00  0.4463E+00  0.9116E+01  0.9074E+01
     34.162  0.4550E+00  0.7433E-01  0.9198E+01  0.9087E+01
     34.343  0.2594E+00  0.8121E+00  0.9245E+01  0.9235E+01
     34.524  0.2454E+00  0.1859E+00  0.9290E+01  0.9268E+01
     34.706  0.3745E-01  0.5102E-03  0.9296E+01  0.9269E+01
     34.887  0.1653E+00  0.1437E+00  0.9326E+01  0.9295E+01
     35.068  0.7370E+00  0.1739E+00  0.9460E+01  0.9326E+01
     35.250  0.2523E+00  0.9073E+00  0.9506E+01  0.9491E+01
     35.431  0.3657E+00  0.2113E+00  0.9572E+01  0.9529E+01
     35.612  0.1650E+00  0.1471E+00  0.9602E+01  0.9556E+01
     35.793  0.7054E-01  0.7267E-01  0.9615E+01  0.9569E+01
     35.975  0.8346E-01  0.1825E+00  0.9630E+01  0.9602E+01
     36.156  0.2523E+00  0.1451E-02  0.9676E+01  0.9602E+01
     36.337  0.1166E+00  0.1536E+00  0.9697E+01  0.9630E+01
     36.519  0.2180E+00  0.2542E+00  0.9736E+01  0.9676E+01
     36.700  0.4332E+00  0.3675E+00  0.9815E+01  0.9743E+01
     36.881  0.3536E+00  0.3981E+00  0.9879E+01  0.9815E+01
     37.063  0.1066E+00  0.2993E+00  0.9898E+01  0.9869E+01
     37.244  0.1450E+00  0.8325E-01  0.9924E+01  0.9884E+01
     37.425  0.8299E-01  0.2296E+00  0.9939E+01  0.9926E+01
     37.606  0.6023E-01  0.2852E-01  0.9950E+01  0.9931E+01
     37.788  0.5736E+00  0.2065E+00  0.1005E+02  0.9968E+01
     37.969  0.6368E-02  0.4807E+00  0.1006E+02  0.1006E+02
     38.150  0.1083E-14  0.2823E-04  0.1006E+02  0.1006E+02
     38.332  0.6073E-03  0.0000E+00  0.1006E+02  0.1006E+02
     38.513  0.1011E+00  0.4761E-08  0.1007E+02  0.1006E+02
     38.694  0.1878E-02  0.4251E-01  0.1007E+02  0.1006E+02
     38.875  0.3100E+00  0.5964E-01  0.1013E+02  0.1007E+02
     39.057  0.3413E+00  0.1398E-03  0.1019E+02  0.1007E+02
     39.238  0.4199E+00  0.4784E+00  0.1027E+02  0.1016E+02
     39.419  0.1347E-03  0.1512E+00  0.1027E+02  0.1019E+02
     39.601  0.1491E+00  0.4418E+00  0.1030E+02  0.1027E+02
     39.782  0.5141E-02  0.1448E+00  0.1030E+02  0.1029E+02
     39.963  0.7497E+00  0.3645E-01  0.1043E+02  0.1030E+02
     40.145  0.7405E+00  0.3217E+00  0.1057E+02  0.1036E+02
     40.326  0.2613E+00  0.1383E+01  0.1061E+02  0.1061E+02
     40.507  0.2354E+00  0.1079E+00  0.1066E+02  0.1063E+02
     40.688  0.3814E-02  0.1516E+00  0.1066E+02  0.1066E+02
     40.870  0.9664E-02  0.9662E-03  0.1066E+02  0.1066E+02
     41.051  0.3361E+00  0.9895E-04  0.1072E+02  0.1066E+02
     41.232  0.1146E+00  0.2932E+00  0.1074E+02  0.1071E+02
     41.414  0.2958E+00  0.1501E+00  0.1079E+02  0.1074E+02
     41.595  0.2653E+00  0.2339E+00  0.1084E+02  0.1078E+02
     41.776  0.1720E+00  0.3442E+00  0.1087E+02  0.1084E+02
     41.957  0.3898E+00  0.5070E-01  0.1094E+02  0.1085E+02
     42.139  0.2683E+00  0.4277E+00  0.1099E+02  0.1093E+02
     42.320  0.1845E+00  0.3834E+00  0.1103E+02  0.1100E+02
     42.501  0.9132E-01  0.8583E-01  0.1104E+02  0.1101E+02
     42.683  0.3752E+00  0.1815E+00  0.1111E+02  0.1105E+02
     42.864  0.1256E+00  0.2368E+00  0.1113E+02  0.1109E+02
     43.045  0.2770E-01  0.1153E+00  0.1114E+02  0.1111E+02
     43.227  0.9202E-03  0.1463E+00  0.1114E+02  0.1114E+02
     43.408  0.5071E+00  0.1373E+00  0.1123E+02  0.1116E+02
     43.589  0.2619E+00  0.5393E+00  0.1128E+02  0.1126E+02
     43.770  0.1494E+00  0.9640E-01  0.1131E+02  0.1128E+02
     43.952  0.2970E+00  0.3088E-08  0.1136E+02  0.1128E+02
     44.133  0.3920E+00  0.5066E-02  0.1143E+02  0.1128E+02
     44.314  0.2286E+00  0.6385E+00  0.1147E+02  0.1139E+02
     44.496  0.1651E-02  0.4288E+00  0.1147E+02  0.1147E+02
     44.677  0.1611E+00  0.1529E-03  0.1150E+02  0.1147E+02
     44.858  0.2985E+00  0.1443E+00  0.1156E+02  0.1150E+02
     45.039  0.5906E-04  0.8883E-02  0.1156E+02  0.1150E+02
     45.221  0.3854E+00  0.1309E+00  0.1163E+02  0.1152E+02
     45.402  0.7424E-01  0.2685E+00  0.1164E+02  0.1157E+02
     45.583  0.4094E-09  0.1811E+00  0.1164E+02  0.1161E+02
     45.765  0.0000E+00  0.1856E+00  0.1164E+02  0.1164E+02
     45.946  0.5475E-04  0.1801E-06  0.1164E+02  0.1164E+02
     46.127  0.2881E+00  0.0000E+00  0.1169E+02  0.1164E+02
     46.309  0.1872E-01  0.2655E-06  0.1169E+02  0.1164E+02
     46.490  0.4393E+00  0.1968E+00  0.1177E+02  0.1167E+02
     46.671  0.2584E+00  0.2626E+00  0.1182E+02  0.1172E+02
     46.852  0.6792E-01  0.2524E-03  0.1183E+02  0.1172E+02
     47.034  0.9580E-04  0.1625E-04  0.1183E+02  0.1172E+02
     47.215  0.4898E+00  0.2741E+00  0.1192E+02  0.1177E+02
     47.396  0.4169E+00  0.2595E+00  0.1200E+02  0.1182E+02
     47.578  0.1252E-01  0.7919E-01  0.1200E+02  0.1183E+02
     47.759  0.0000E+00  0.1172E-08  0.1200E+02  0.1183E+02
     47.940  0.0000E+00  0.0000E+00  0.1200E+02  0.1183E+02
     48.121  0.0000E+00  0.1142E-06  0.1200E+02  0.1183E+02
     48.303  0.0000E+00  0.1759E+00  0.1200E+02  0.1187E+02
     48.484  0.0000E+00  0.2831E+00  0.1200E+02  0.1192E+02
     48.665  0.0000E+00  0.7844E-03  0.1200E+02  0.1192E+02
     48.847  0.0000E+00  0.1499E+00  0.1200E+02  0.1194E+02
     49.028  0.0000E+00  0.3147E-02  0.1200E+02  0.1194E+02
     49.209  0.0000E+00  0.0000E+00  0.1200E+02  0.1194E+02
     49.391  0.0000E+00  0.0000E+00  0.1200E+02  0.1194E+02
     49.572  0.0000E+00  0.0000E+00  0.1200E+02  0.1194E+02
     49.753  0.0000E+00  0.0000E+00  0.1200E+02  0.1194E+02
     49.934  0.0000E+00  0.0000E+00  0.1200E+02  0.1194E+02
     50.116  0.0000E+00  0.0000E+00  0.1200E+02  0.1194E+02
     50.297  0.0000E+00  0.0000E+00  0.1200E+02  0.1194E+02
     50.478  0.0000E+00  0.0000E+00  0.1200E+02  0.1194E+02
     50.660  0.0000E+00  0.6952E-11  0.1200E+02  0.1194E+02
     50.841  0.0000E+00  0.1347E-01  0.1200E+02  0.1195E+02
     51.022  0.0000E+00  0.1445E+00  0.1200E+02  0.1197E+02
     51.203  0.0000E+00  0.1484E+00  0.1200E+02  0.1200E+02
     51.385  0.0000E+00  0.8442E-04  0.1200E+02  0.1200E+02
     51.566  0.0000E+00  0.0000E+00  0.1200E+02  0.1200E+02
     51.747  0.0000E+00  0.0000E+00  0.1200E+02  0.1200E+02
     51.929  0.0000E+00  0.0000E+00  0.1200E+02  0.1200E+02
     52.110  0.0000E+00  0.0000E+00  0.1200E+02  0.1200E+02
     52.291  0.0000E+00  0.0000E+00  0.1200E+02  0.1200E+02
     52.473  0.0000E+00  0.0000E+00  0.1200E+02  0.1200E+02
     52.654  0.0000E+00  0.0000E+00  0.1200E+02  0.1200E+02
     52.835  0.0000E+00  0.0000E+00  0.1200E+02  0.1200E+02
     53.016  0.0000E+00  0.0000E+00  0.1200E+02  0.1200E+02
     53.198  0.0000E+00  0.0000E+00  0.1200E+02  0.1200E+02
     53.379  0.0000E+00  0.0000E+00  0.1200E+02  0.1200E+02
     53.560  0.0000E+00  0.0000E+00  0.1200E+02  0.1200E+02
