       N       E                     dE             d eps       ncg     rms          rms(c)
DAV:   1     0.225040243322E+02    0.22504E+02   -0.34897E+03  1360   0.785E+02
DAV:   2    -0.706180175764E+01   -0.29566E+02   -0.27612E+02  1456   0.139E+02
DAV:   3    -0.780022756106E+01   -0.73843E+00   -0.73584E+00  1552   0.249E+01
DAV:   4    -0.780749476437E+01   -0.72672E-02   -0.72656E-02  1640   0.217E+00
DAV:   5    -0.780767294795E+01   -0.17818E-03   -0.17818E-03  1780   0.314E-01    0.113E+01
DAV:   6    -0.719163342383E+01    0.61604E+00   -0.11393E+01  1732   0.446E+01    0.419E+00
DAV:   7    -0.703185869771E+01    0.15977E+00   -0.13113E+00  1672   0.137E+01    0.243E+00
DAV:   8    -0.702236810874E+01    0.94906E-02   -0.15109E-02  1828   0.976E-01    0.122E+00
DAV:   9    -0.701605378915E+01    0.63143E-02   -0.68237E-03  1924   0.654E-01    0.270E-01
DAV:  10    -0.701584478428E+01    0.20900E-03   -0.18117E-04  1848   0.107E-01    0.571E-02
DAV:  11    -0.701581751522E+01    0.27269E-04   -0.75030E-05  1908   0.844E-02    0.425E-02
DAV:  12    -0.701581635294E+01    0.11623E-05   -0.26603E-06  1148   0.177E-02    0.169E-02
DAV:  13    -0.701581580571E+01    0.54723E-06   -0.15655E-06  1044   0.895E-03
   1 F= -.70158158E+01 E0= -.70147345E+01  d E =-.216266E-02  mag=     1.6675
