   2   2   1   0
  0.1117317E+02  0.2519665E-09  0.2519665E-09  0.4064340E-09  0.5000000E-15
  1.000000000000000E-004
  CAR 
 Co-hcc                                  
     49.62270606     -1.20729971  301      9.80436083      1.00000000
     -1.207  0.0000E+00  0.0000E+00  0.0000E+00  0.0000E+00
     -1.038  0.0000E+00  0.0000E+00  0.0000E+00  0.0000E+00
     -0.868  0.0000E+00  0.0000E+00  0.0000E+00  0.0000E+00
     -0.699  0.0000E+00  0.0000E+00  0.0000E+00  0.0000E+00
     -0.530  0.0000E+00  0.0000E+00  0.0000E+00  0.0000E+00
     -0.360  0.0000E+00  0.0000E+00  0.0000E+00  0.0000E+00
     -0.191  0.0000E+00  0.0000E+00  0.0000E+00  0.0000E+00
     -0.021  0.0000E+00  0.0000E+00  0.0000E+00  0.0000E+00
      0.148  0.0000E+00  0.0000E+00  0.0000E+00  0.0000E+00
      0.318  0.0000E+00  0.0000E+00  0.0000E+00  0.0000E+00
      0.487  0.0000E+00  0.0000E+00  0.0000E+00  0.0000E+00
      0.656  0.0000E+00  0.0000E+00  0.0000E+00  0.0000E+00
      0.826  0.6257E-19  0.1138E-18  0.1060E-19  0.1927E-19
      0.995  0.4608E-07  0.5869E-07  0.7808E-08  0.9944E-08
      1.165  0.4911E-04  0.4950E-04  0.8328E-05  0.8397E-05
      1.334  0.2260E-03  0.2316E-03  0.4663E-04  0.4763E-04
      1.504  0.5492E-03  0.5489E-03  0.1397E-03  0.1406E-03
      1.673  0.2641E-03  0.2576E-03  0.1844E-03  0.1843E-03
      1.843  0.3526E-03  0.3489E-03  0.2442E-03  0.2434E-03
      2.012  0.1322E-02  0.1301E-02  0.4682E-03  0.4638E-03
      2.181  0.6171E-03  0.5895E-03  0.5728E-03  0.5637E-03
      2.351  0.3663E-03  0.3765E-03  0.6348E-03  0.6275E-03
      2.520  0.6186E-03  0.6526E-03  0.7396E-03  0.7380E-03
      2.690  0.1531E-02  0.1311E-02  0.9991E-03  0.9601E-03
      2.859  0.1424E-02  0.1440E-02  0.1240E-02  0.1204E-02
      3.029  0.2563E-03  0.3456E-03  0.1284E-02  0.1263E-02
      3.198  0.1803E-02  0.1092E-02  0.1589E-02  0.1448E-02
      3.367  0.1526E-02  0.2283E-02  0.1848E-02  0.1835E-02
      3.537  0.7435E-03  0.1240E-03  0.1974E-02  0.1856E-02
      3.706  0.8043E-03  0.1263E-02  0.2110E-02  0.2070E-02
      3.876  0.2932E-02  0.1372E-02  0.2607E-02  0.2302E-02
      4.045  0.1885E-02  0.2856E-02  0.2926E-02  0.2786E-02
      4.215  0.2767E-02  0.1494E-02  0.3395E-02  0.3039E-02
      4.384  0.1434E-02  0.1807E-02  0.3638E-02  0.3345E-02
      4.553  0.2867E-02  0.1130E-02  0.4124E-02  0.3537E-02
      4.723  0.2817E-02  0.1756E-02  0.4601E-02  0.3834E-02
      4.892  0.8823E-02  0.2370E-02  0.6096E-02  0.4236E-02
      5.062  0.1014E-01  0.2787E-02  0.7814E-02  0.4708E-02
      5.231  0.9954E-02  0.2822E-02  0.9500E-02  0.5186E-02
      5.401  0.1672E-01  0.2910E-02  0.1233E-01  0.5679E-02
      5.570  0.1416E-01  0.3750E-02  0.1473E-01  0.6315E-02
      5.739  0.2136E-01  0.5318E-02  0.1835E-01  0.7216E-02
      5.909  0.1534E-01  0.2906E-02  0.2095E-01  0.7708E-02
      6.078  0.1750E-01  0.9956E-02  0.2391E-01  0.9395E-02
      6.248  0.1732E-01  0.9193E-02  0.2685E-01  0.1095E-01
      6.417  0.2184E-01  0.8649E-02  0.3055E-01  0.1242E-01
      6.587  0.2319E-01  0.7719E-02  0.3448E-01  0.1373E-01
      6.756  0.1818E-01  0.1235E-01  0.3756E-01  0.1582E-01
      6.926  0.1155E-01  0.1441E-01  0.3951E-01  0.1826E-01
      7.095  0.2921E-01  0.1517E-01  0.4446E-01  0.2083E-01
      7.264  0.3056E-01  0.1178E-01  0.4964E-01  0.2283E-01
      7.434  0.2926E-01  0.1458E-01  0.5460E-01  0.2530E-01
      7.603  0.3137E-01  0.1675E-01  0.5991E-01  0.2814E-01
      7.773  0.3266E-01  0.1845E-01  0.6545E-01  0.3126E-01
      7.942  0.2579E-01  0.2313E-01  0.6982E-01  0.3518E-01
      8.112  0.1744E-01  0.1160E-01  0.7277E-01  0.3715E-01
      8.281  0.2413E-01  0.9735E-02  0.7686E-01  0.3880E-01
      8.450  0.1544E-01  0.1023E-01  0.7948E-01  0.4053E-01
      8.620  0.1758E-01  0.2313E-01  0.8246E-01  0.4445E-01
      8.789  0.2846E-01  0.2457E-01  0.8728E-01  0.4861E-01
      8.959  0.3318E-01  0.2773E-01  0.9290E-01  0.5331E-01
      9.128  0.4988E-01  0.2605E-01  0.1014E+00  0.5772E-01
      9.298  0.1805E-01  0.3140E-01  0.1044E+00  0.6304E-01
      9.467  0.1410E-02  0.2569E-01  0.1047E+00  0.6740E-01
      9.636  0.5726E-02  0.1644E-01  0.1056E+00  0.7018E-01
      9.806  0.5748E-02  0.1920E-01  0.1066E+00  0.7344E-01
      9.975  0.2813E-02  0.1123E-01  0.1071E+00  0.7534E-01
     10.145  0.1495E-02  0.1990E-01  0.1073E+00  0.7871E-01
     10.314  0.1497E-02  0.1073E-01  0.1076E+00  0.8053E-01
     10.484  0.7478E-03  0.1566E-01  0.1077E+00  0.8318E-01
     10.653  0.2632E-02  0.2473E-01  0.1082E+00  0.8737E-01
     10.822  0.6383E-02  0.2614E-01  0.1092E+00  0.9180E-01
     10.992  0.4247E-02  0.3987E-01  0.1100E+00  0.9855E-01
     11.161  0.3729E-02  0.3563E-01  0.1106E+00  0.1046E+00
     11.331  0.1227E-02  0.9747E-02  0.1108E+00  0.1062E+00
     11.500  0.2106E-02  0.4426E-02  0.1111E+00  0.1070E+00
     11.670  0.1650E-02  0.3552E-02  0.1114E+00  0.1076E+00
     11.839  0.2713E-02  0.3179E-02  0.1119E+00  0.1081E+00
     12.009  0.1739E-02  0.4303E-02  0.1122E+00  0.1089E+00
     12.178  0.3795E-02  0.3819E-02  0.1128E+00  0.1095E+00
     12.347  0.1006E-02  0.5153E-02  0.1130E+00  0.1104E+00
     12.517  0.3929E-02  0.4229E-02  0.1137E+00  0.1111E+00
     12.686  0.2085E-02  0.2319E-02  0.1140E+00  0.1115E+00
     12.856  0.1105E-02  0.3394E-02  0.1142E+00  0.1121E+00
     13.025  0.2353E-02  0.1349E-02  0.1146E+00  0.1123E+00
     13.195  0.2019E-02  0.3364E-02  0.1149E+00  0.1129E+00
     13.364  0.5438E-02  0.2450E-02  0.1159E+00  0.1133E+00
     13.533  0.1763E-02  0.2925E-02  0.1162E+00  0.1138E+00
     13.703  0.2140E-02  0.1801E-02  0.1165E+00  0.1141E+00
     13.872  0.2098E-02  0.2875E-02  0.1169E+00  0.1146E+00
     14.042  0.1097E-02  0.4054E-02  0.1171E+00  0.1153E+00
     14.211  0.9749E-03  0.3452E-02  0.1172E+00  0.1158E+00
     14.381  0.1960E-02  0.1318E-02  0.1176E+00  0.1161E+00
     14.550  0.6991E-03  0.2201E-02  0.1177E+00  0.1164E+00
     14.719  0.1421E-02  0.3272E-02  0.1179E+00  0.1170E+00
     14.889  0.1103E-02  0.1451E-02  0.1181E+00  0.1172E+00
     15.058  0.5630E-02  0.1407E-02  0.1191E+00  0.1175E+00
     15.228  0.1840E-02  0.1391E-02  0.1194E+00  0.1177E+00
     15.397  0.1388E-02  0.1101E-02  0.1196E+00  0.1179E+00
     15.567  0.3418E-03  0.1137E-02  0.1197E+00  0.1181E+00
     15.736  0.1296E-07  0.4215E-02  0.1197E+00  0.1188E+00
     15.905  0.1739E-03  0.3367E-02  0.1197E+00  0.1194E+00
     16.075  0.1138E-02  0.1195E-02  0.1199E+00  0.1196E+00
     16.244  0.1334E-02  0.5519E-03  0.1201E+00  0.1197E+00
     16.414  0.6761E-03  0.1183E-06  0.1202E+00  0.1197E+00
     16.583  0.5097E-03  0.8919E-05  0.1203E+00  0.1197E+00
     16.753  0.6367E-03  0.1157E-02  0.1204E+00  0.1199E+00
     16.922  0.1701E-02  0.5783E-03  0.1207E+00  0.1200E+00
     17.092  0.2865E-02  0.7103E-03  0.1212E+00  0.1201E+00
     17.261  0.7168E-02  0.1219E-02  0.1224E+00  0.1203E+00
     17.430  0.6024E-02  0.5576E-03  0.1234E+00  0.1204E+00
     17.600  0.1647E-02  0.1260E-02  0.1237E+00  0.1206E+00
     17.769  0.4299E-02  0.1319E-02  0.1244E+00  0.1208E+00
     17.939  0.2928E-02  0.6708E-02  0.1249E+00  0.1220E+00
     18.108  0.3885E-02  0.5786E-02  0.1256E+00  0.1229E+00
     18.278  0.2461E-02  0.3689E-02  0.1260E+00  0.1236E+00
     18.447  0.3725E-02  0.3952E-02  0.1266E+00  0.1242E+00
     18.616  0.2147E-02  0.4202E-02  0.1270E+00  0.1249E+00
     18.786  0.3441E-02  0.4085E-02  0.1276E+00  0.1256E+00
     18.955  0.2926E-02  0.2740E-02  0.1281E+00  0.1261E+00
     19.125  0.2797E-02  0.3693E-02  0.1286E+00  0.1267E+00
     19.294  0.3248E-02  0.2400E-02  0.1291E+00  0.1271E+00
     19.464  0.3985E-02  0.4300E-02  0.1298E+00  0.1279E+00
     19.633  0.3971E-02  0.3080E-02  0.1305E+00  0.1284E+00
     19.802  0.3523E-02  0.2992E-02  0.1311E+00  0.1289E+00
     19.972  0.5267E-02  0.2282E-02  0.1319E+00  0.1293E+00
     20.141  0.3266E-02  0.5630E-02  0.1325E+00  0.1302E+00
     20.311  0.2920E-02  0.4952E-02  0.1330E+00  0.1311E+00
     20.480  0.5367E-02  0.5316E-02  0.1339E+00  0.1320E+00
     20.650  0.3916E-02  0.3144E-02  0.1346E+00  0.1325E+00
     20.819  0.2973E-02  0.2178E-02  0.1351E+00  0.1329E+00
     20.988  0.2099E-02  0.6686E-02  0.1354E+00  0.1340E+00
     21.158  0.2954E-02  0.3418E-02  0.1359E+00  0.1346E+00
     21.327  0.5071E-02  0.3748E-02  0.1368E+00  0.1352E+00
     21.497  0.3877E-02  0.2067E-02  0.1374E+00  0.1356E+00
     21.666  0.2732E-02  0.3534E-02  0.1379E+00  0.1362E+00
     21.836  0.2190E-02  0.4740E-02  0.1383E+00  0.1370E+00
     22.005  0.1624E-02  0.3163E-02  0.1386E+00  0.1375E+00
     22.175  0.3971E-02  0.3153E-02  0.1392E+00  0.1380E+00
     22.344  0.2210E-02  0.1414E-02  0.1396E+00  0.1383E+00
     22.513  0.1563E-02  0.3393E-02  0.1399E+00  0.1389E+00
     22.683  0.3118E-02  0.2886E-02  0.1404E+00  0.1393E+00
     22.852  0.6217E-02  0.1908E-02  0.1414E+00  0.1397E+00
     23.022  0.2252E-02  0.1959E-02  0.1418E+00  0.1400E+00
     23.191  0.1896E-02  0.5519E-02  0.1422E+00  0.1409E+00
     23.361  0.1320E-02  0.3645E-02  0.1424E+00  0.1416E+00
     23.530  0.6102E-02  0.2862E-02  0.1434E+00  0.1420E+00
     23.699  0.5301E-02  0.8539E-03  0.1443E+00  0.1422E+00
     23.869  0.9768E-03  0.4370E-02  0.1445E+00  0.1429E+00
     24.038  0.3557E-02  0.6291E-02  0.1451E+00  0.1440E+00
     24.208  0.3647E-02  0.2542E-02  0.1457E+00  0.1444E+00
     24.377  0.3347E-02  0.1818E-02  0.1463E+00  0.1447E+00
     24.547  0.4811E-02  0.4220E-02  0.1471E+00  0.1454E+00
     24.716  0.4995E-02  0.4233E-02  0.1479E+00  0.1462E+00
     24.885  0.3436E-02  0.4736E-02  0.1485E+00  0.1470E+00
     25.055  0.7648E-02  0.4800E-02  0.1498E+00  0.1478E+00
     25.224  0.4431E-02  0.4493E-02  0.1506E+00  0.1485E+00
     25.394  0.3231E-02  0.5809E-02  0.1511E+00  0.1495E+00
     25.563  0.2108E-02  0.5551E-02  0.1515E+00  0.1505E+00
     25.733  0.3326E-02  0.2376E-02  0.1520E+00  0.1509E+00
     25.902  0.6535E-02  0.3635E-02  0.1531E+00  0.1515E+00
     26.071  0.1582E-02  0.4211E-02  0.1534E+00  0.1522E+00
     26.241  0.3988E-02  0.6287E-02  0.1541E+00  0.1533E+00
     26.410  0.8085E-02  0.8808E-03  0.1554E+00  0.1534E+00
     26.580  0.3764E-02  0.4690E-02  0.1561E+00  0.1542E+00
     26.749  0.3550E-02  0.7877E-02  0.1567E+00  0.1555E+00
     26.919  0.3821E-02  0.3711E-02  0.1573E+00  0.1562E+00
     27.088  0.5736E-02  0.3333E-02  0.1583E+00  0.1567E+00
     27.258  0.1975E-02  0.5417E-02  0.1586E+00  0.1577E+00
     27.427  0.4912E-02  0.4748E-02  0.1595E+00  0.1585E+00
     27.596  0.2808E-02  0.3477E-02  0.1599E+00  0.1590E+00
     27.766  0.3570E-02  0.3176E-02  0.1605E+00  0.1596E+00
     27.935  0.4873E-02  0.3849E-02  0.1614E+00  0.1602E+00
     28.105  0.3563E-02  0.3380E-02  0.1620E+00  0.1608E+00
     28.274  0.4980E-02  0.4555E-02  0.1628E+00  0.1616E+00
     28.444  0.4310E-02  0.5303E-02  0.1635E+00  0.1625E+00
     28.613  0.3305E-02  0.4670E-02  0.1641E+00  0.1633E+00
     28.782  0.8095E-02  0.3934E-02  0.1655E+00  0.1639E+00
     28.952  0.2186E-02  0.4793E-02  0.1659E+00  0.1647E+00
     29.121  0.3808E-02  0.6237E-02  0.1665E+00  0.1658E+00
     29.291  0.4224E-02  0.2555E-02  0.1672E+00  0.1662E+00
     29.460  0.4921E-02  0.4950E-02  0.1680E+00  0.1671E+00
     29.630  0.2316E-02  0.3791E-02  0.1684E+00  0.1677E+00
     29.799  0.5794E-02  0.4213E-02  0.1694E+00  0.1684E+00
     29.968  0.2952E-02  0.6117E-02  0.1699E+00  0.1695E+00
     30.138  0.4414E-02  0.2340E-02  0.1707E+00  0.1699E+00
     30.307  0.3517E-02  0.2789E-02  0.1713E+00  0.1703E+00
     30.477  0.2878E-02  0.5226E-02  0.1718E+00  0.1712E+00
     30.646  0.2676E-02  0.2996E-02  0.1722E+00  0.1717E+00
     30.816  0.5234E-02  0.3832E-02  0.1731E+00  0.1724E+00
     30.985  0.7048E-02  0.3878E-02  0.1743E+00  0.1730E+00
     31.154  0.5593E-02  0.6369E-02  0.1752E+00  0.1741E+00
     31.324  0.3306E-02  0.6148E-02  0.1758E+00  0.1752E+00
     31.493  0.2935E-02  0.3190E-02  0.1763E+00  0.1757E+00
     31.663  0.5228E-02  0.2866E-02  0.1772E+00  0.1762E+00
     31.832  0.3587E-02  0.4829E-02  0.1778E+00  0.1770E+00
     32.002  0.6396E-02  0.5668E-02  0.1789E+00  0.1780E+00
     32.171  0.5844E-02  0.4626E-02  0.1799E+00  0.1787E+00
     32.341  0.3446E-02  0.5509E-02  0.1804E+00  0.1797E+00
     32.510  0.1800E-02  0.4527E-02  0.1807E+00  0.1804E+00
     32.679  0.6466E-03  0.1472E-02  0.1809E+00  0.1807E+00
     32.849  0.4156E-02  0.1394E-02  0.1816E+00  0.1809E+00
     33.018  0.4791E-02  0.4019E-02  0.1824E+00  0.1816E+00
     33.188  0.6842E-02  0.5208E-02  0.1835E+00  0.1825E+00
     33.357  0.4721E-02  0.3369E-02  0.1843E+00  0.1831E+00
     33.527  0.9793E-02  0.5112E-02  0.1860E+00  0.1839E+00
     33.696  0.5397E-02  0.8051E-02  0.1869E+00  0.1853E+00
     33.865  0.3888E-02  0.9481E-02  0.1876E+00  0.1869E+00
     34.035  0.4969E-02  0.4870E-02  0.1884E+00  0.1877E+00
     34.204  0.5583E-02  0.2923E-02  0.1894E+00  0.1882E+00
     34.374  0.4059E-02  0.4867E-02  0.1900E+00  0.1890E+00
     34.543  0.3671E-02  0.5687E-02  0.1907E+00  0.1900E+00
     34.713  0.3334E-02  0.5067E-02  0.1912E+00  0.1909E+00
     34.882  0.2836E-02  0.2734E-02  0.1917E+00  0.1913E+00
     35.051  0.1081E-02  0.3316E-02  0.1919E+00  0.1919E+00
     35.221  0.6273E-02  0.6552E-03  0.1930E+00  0.1920E+00
     35.390  0.3403E-02  0.4608E-02  0.1935E+00  0.1928E+00
     35.560  0.2150E-02  0.3809E-02  0.1939E+00  0.1934E+00
     35.729  0.4988E-02  0.2195E-02  0.1947E+00  0.1938E+00
     35.899  0.5416E-02  0.5276E-02  0.1957E+00  0.1947E+00
     36.068  0.6914E-02  0.4515E-02  0.1968E+00  0.1955E+00
     36.237  0.4682E-02  0.5406E-02  0.1976E+00  0.1964E+00
     36.407  0.1891E-02  0.6150E-02  0.1979E+00  0.1974E+00
     36.576  0.3357E-02  0.2804E-02  0.1985E+00  0.1979E+00
     36.746  0.5962E-02  0.2308E-02  0.1995E+00  0.1983E+00
     36.915  0.4598E-02  0.7034E-02  0.2003E+00  0.1995E+00
     37.085  0.5090E-02  0.4367E-02  0.2012E+00  0.2002E+00
     37.254  0.3496E-02  0.4531E-02  0.2018E+00  0.2010E+00
     37.424  0.2672E-02  0.4396E-02  0.2022E+00  0.2017E+00
     37.593  0.5212E-02  0.2313E-02  0.2031E+00  0.2021E+00
     37.762  0.9587E-02  0.4317E-02  0.2047E+00  0.2029E+00
     37.932  0.2389E-02  0.7963E-02  0.2051E+00  0.2042E+00
     38.101  0.3585E-02  0.4722E-02  0.2057E+00  0.2050E+00
     38.271  0.3361E-02  0.4151E-02  0.2063E+00  0.2057E+00
     38.440  0.3466E-02  0.3318E-02  0.2069E+00  0.2063E+00
     38.610  0.3779E-02  0.5372E-02  0.2075E+00  0.2072E+00
     38.779  0.3846E-02  0.2534E-02  0.2082E+00  0.2076E+00
     38.948  0.6090E-02  0.1931E-02  0.2092E+00  0.2079E+00
     39.118  0.5737E-02  0.6152E-02  0.2102E+00  0.2090E+00
     39.287  0.5842E-02  0.6240E-02  0.2112E+00  0.2100E+00
     39.457  0.6044E-02  0.5889E-02  0.2122E+00  0.2110E+00
     39.626  0.5790E-02  0.6403E-02  0.2132E+00  0.2121E+00
     39.796  0.5618E-02  0.5228E-02  0.2141E+00  0.2130E+00
     39.965  0.1918E-02  0.6060E-02  0.2145E+00  0.2140E+00
     40.134  0.4283E-02  0.2967E-02  0.2152E+00  0.2145E+00
     40.304  0.5615E-02  0.4229E-02  0.2161E+00  0.2153E+00
     40.473  0.5525E-02  0.5330E-02  0.2171E+00  0.2162E+00
     40.643  0.3132E-02  0.4907E-02  0.2176E+00  0.2170E+00
     40.812  0.1923E-02  0.4086E-02  0.2179E+00  0.2177E+00
     40.982  0.9302E-03  0.1656E-02  0.2181E+00  0.2180E+00
     41.151  0.5779E-02  0.1899E-02  0.2191E+00  0.2183E+00
     41.320  0.6093E-02  0.4361E-02  0.2201E+00  0.2190E+00
     41.490  0.5408E-02  0.4688E-02  0.2210E+00  0.2198E+00
     41.659  0.9801E-02  0.5174E-02  0.2227E+00  0.2207E+00
     41.829  0.4341E-02  0.6179E-02  0.2234E+00  0.2217E+00
     41.998  0.5932E-02  0.8856E-02  0.2244E+00  0.2232E+00
     42.168  0.4361E-02  0.7370E-02  0.2251E+00  0.2245E+00
     42.337  0.6075E-02  0.2249E-02  0.2262E+00  0.2249E+00
     42.507  0.2565E-02  0.4333E-02  0.2266E+00  0.2256E+00
     42.676  0.5476E-02  0.5464E-02  0.2275E+00  0.2265E+00
     42.845  0.2171E-02  0.5321E-02  0.2279E+00  0.2274E+00
     43.015  0.7066E-02  0.4209E-02  0.2291E+00  0.2281E+00
     43.184  0.6502E-02  0.5672E-02  0.2302E+00  0.2291E+00
     43.354  0.4620E-02  0.6196E-02  0.2310E+00  0.2302E+00
     43.523  0.1413E-02  0.4836E-02  0.2312E+00  0.2310E+00
     43.693  0.4619E-02  0.6464E-03  0.2320E+00  0.2311E+00
     43.862  0.4646E-02  0.1161E-02  0.2328E+00  0.2313E+00
     44.031  0.3248E-02  0.6735E-02  0.2333E+00  0.2324E+00
     44.201  0.4286E-02  0.4781E-02  0.2341E+00  0.2332E+00
     44.370  0.1603E-02  0.2734E-02  0.2343E+00  0.2337E+00
     44.540  0.3228E-02  0.4330E-02  0.2349E+00  0.2344E+00
     44.709  0.1721E-02  0.2090E-02  0.2352E+00  0.2348E+00
     44.879  0.3654E-02  0.1164E-02  0.2358E+00  0.2350E+00
     45.048  0.3437E-02  0.1265E-02  0.2364E+00  0.2352E+00
     45.217  0.5325E-02  0.5011E-02  0.2373E+00  0.2360E+00
     45.387  0.4591E-02  0.4276E-02  0.2381E+00  0.2368E+00
     45.556  0.3570E-02  0.5289E-02  0.2387E+00  0.2377E+00
     45.726  0.1635E-02  0.1835E-02  0.2389E+00  0.2380E+00
     45.895  0.2902E-02  0.2180E-02  0.2394E+00  0.2383E+00
     46.065  0.7194E-03  0.2653E-02  0.2396E+00  0.2388E+00
     46.234  0.1003E-02  0.1254E-02  0.2397E+00  0.2390E+00
     46.403  0.4530E-03  0.1755E-02  0.2398E+00  0.2393E+00
     46.573  0.2458E-03  0.1816E-02  0.2399E+00  0.2396E+00
     46.742  0.8738E-03  0.8854E-03  0.2400E+00  0.2398E+00
     46.912  0.1036E-04  0.2001E-03  0.2400E+00  0.2398E+00
     47.081  0.0000E+00  0.6036E-03  0.2400E+00  0.2399E+00
     47.251  0.0000E+00  0.2815E-04  0.2400E+00  0.2399E+00
     47.420  0.0000E+00  0.5891E-03  0.2400E+00  0.2400E+00
     47.590  0.0000E+00  0.7043E-06  0.2400E+00  0.2400E+00
     47.759  0.0000E+00  0.0000E+00  0.2400E+00  0.2400E+00
     47.928  0.0000E+00  0.0000E+00  0.2400E+00  0.2400E+00
     48.098  0.0000E+00  0.0000E+00  0.2400E+00  0.2400E+00
     48.267  0.0000E+00  0.0000E+00  0.2400E+00  0.2400E+00
     48.437  0.0000E+00  0.0000E+00  0.2400E+00  0.2400E+00
     48.606  0.0000E+00  0.0000E+00  0.2400E+00  0.2400E+00
     48.776  0.0000E+00  0.0000E+00  0.2400E+00  0.2400E+00
     48.945  0.0000E+00  0.0000E+00  0.2400E+00  0.2400E+00
     49.114  0.0000E+00  0.0000E+00  0.2400E+00  0.2400E+00
     49.284  0.0000E+00  0.0000E+00  0.2400E+00  0.2400E+00
     49.453  0.0000E+00  0.0000E+00  0.2400E+00  0.2400E+00
     49.623  0.0000E+00  0.0000E+00  0.2400E+00  0.2400E+00
     49.62270606     -1.20729971  301      9.80436083      1.00000000
     -1.207  0.0000E+00  0.0000E+00  0.0000E+00  0.0000E+00  0.0000E+00  0.0000E+00  0.0000E+00  0.0000E+00  0.0000E+00  0.0000E+00  0.0000E+00  0.0000E+00  0.0000E+00  0.0000E+00  0.0000E+00  0.0000E+00  0.0000E+00  0.0000E+00
     -1.038  0.0000E+00  0.0000E+00  0.0000E+00  0.0000E+00  0.0000E+00  0.0000E+00  0.0000E+00  0.0000E+00  0.0000E+00  0.0000E+00  0.0000E+00  0.0000E+00  0.0000E+00  0.0000E+00  0.0000E+00  0.0000E+00  0.0000E+00  0.0000E+00
     -0.868  0.0000E+00  0.0000E+00  0.0000E+00  0.0000E+00  0.0000E+00  0.0000E+00  0.0000E+00  0.0000E+00  0.0000E+00  0.0000E+00  0.0000E+00  0.0000E+00  0.0000E+00  0.0000E+00  0.0000E+00  0.0000E+00  0.0000E+00  0.0000E+00
     -0.699  0.0000E+00  0.0000E+00  0.0000E+00  0.0000E+00  0.0000E+00  0.0000E+00  0.0000E+00  0.0000E+00  0.0000E+00  0.0000E+00  0.0000E+00  0.0000E+00  0.0000E+00  0.0000E+00  0.0000E+00  0.0000E+00  0.0000E+00  0.0000E+00
     -0.530  0.0000E+00  0.0000E+00  0.0000E+00  0.0000E+00  0.0000E+00  0.0000E+00  0.0000E+00  0.0000E+00  0.0000E+00  0.0000E+00  0.0000E+00  0.0000E+00  0.0000E+00  0.0000E+00  0.0000E+00  0.0000E+00  0.0000E+00  0.0000E+00
     -0.360  0.0000E+00  0.0000E+00  0.0000E+00  0.0000E+00  0.0000E+00  0.0000E+00  0.0000E+00  0.0000E+00  0.0000E+00  0.0000E+00  0.0000E+00  0.0000E+00  0.0000E+00  0.0000E+00  0.0000E+00  0.0000E+00  0.0000E+00  0.0000E+00
     -0.191  0.0000E+00  0.0000E+00  0.0000E+00  0.0000E+00  0.0000E+00  0.0000E+00  0.0000E+00  0.0000E+00  0.0000E+00  0.0000E+00  0.0000E+00  0.0000E+00  0.0000E+00  0.0000E+00  0.0000E+00  0.0000E+00  0.0000E+00  0.0000E+00
     -0.021  0.0000E+00  0.0000E+00  0.0000E+00  0.0000E+00  0.0000E+00  0.0000E+00  0.0000E+00  0.0000E+00  0.0000E+00  0.0000E+00  0.0000E+00  0.0000E+00  0.0000E+00  0.0000E+00  0.0000E+00  0.0000E+00  0.0000E+00  0.0000E+00
      0.148  0.0000E+00  0.0000E+00  0.0000E+00  0.0000E+00  0.0000E+00  0.0000E+00  0.0000E+00  0.0000E+00  0.0000E+00  0.0000E+00  0.0000E+00  0.0000E+00  0.0000E+00  0.0000E+00  0.0000E+00  0.0000E+00  0.0000E+00  0.0000E+00
      0.318  0.0000E+00  0.0000E+00  0.0000E+00  0.0000E+00  0.0000E+00  0.0000E+00  0.0000E+00  0.0000E+00  0.0000E+00  0.0000E+00  0.0000E+00  0.0000E+00  0.0000E+00  0.0000E+00  0.0000E+00  0.0000E+00  0.0000E+00  0.0000E+00
      0.487  0.0000E+00  0.0000E+00  0.0000E+00  0.0000E+00  0.0000E+00  0.0000E+00  0.0000E+00  0.0000E+00  0.0000E+00  0.0000E+00  0.0000E+00  0.0000E+00  0.0000E+00  0.0000E+00  0.0000E+00  0.0000E+00  0.0000E+00  0.0000E+00
      0.656  0.0000E+00  0.0000E+00  0.0000E+00  0.0000E+00  0.0000E+00  0.0000E+00  0.0000E+00  0.0000E+00  0.0000E+00  0.0000E+00  0.0000E+00  0.0000E+00  0.0000E+00  0.0000E+00  0.0000E+00  0.0000E+00  0.0000E+00  0.0000E+00
      0.826  0.2192E-17  0.3979E-17  0.9485E-35  0.2882E-32  0.1883E-32  0.2593E-31  0.9485E-35  0.2882E-32  0.7944E-32  0.1451E-30  0.8530E-36  0.7446E-34  0.1482E-22  0.4158E-22  0.8530E-36  0.7446E-34  0.7944E-32  0.1451E-30
      0.995  0.1615E-05  0.2053E-05  0.6985E-23  0.1487E-20  0.1705E-17  0.2650E-17  0.6985E-23  0.1487E-20  0.5851E-20  0.7488E-19  0.6282E-24  0.3841E-22  0.1091E-10  0.2145E-10  0.6282E-24  0.3841E-22  0.5851E-20  0.7488E-19
      1.165  0.1721E-02  0.1731E-02  0.2762E-10  0.3555E-10  0.1789E-06  0.2131E-06  0.2762E-10  0.3555E-10  0.5107E-12  0.4745E-12  0.6666E-21  0.3294E-19  0.1355E-07  0.1935E-07  0.6666E-21  0.3294E-19  0.5107E-12  0.4745E-12
      1.334  0.7773E-02  0.7948E-02  0.4813E-04  0.5058E-04  0.5132E-04  0.5171E-04  0.4813E-04  0.5058E-04  0.8901E-06  0.6751E-06  0.2585E-10  0.2125E-10  0.1485E-05  0.1146E-05  0.2585E-10  0.2125E-10  0.8901E-06  0.6751E-06
      1.504  0.1863E-01  0.1858E-01  0.2123E-03  0.2132E-03  0.1847E-03  0.1885E-03  0.2123E-03  0.2132E-03  0.4004E-05  0.2885E-05  0.6042E-05  0.4505E-05  0.1377E-05  0.1122E-05  0.6042E-05  0.4505E-05  0.4004E-05  0.2885E-05
      1.673  0.8903E-02  0.8669E-02  0.9728E-04  0.9555E-04  0.1518E-03  0.1484E-03  0.9728E-04  0.9555E-04  0.1854E-05  0.1302E-05  0.4183E-05  0.3002E-05  0.1724E-05  0.1073E-05  0.4183E-05  0.3002E-05  0.1854E-05  0.1302E-05
      1.843  0.1155E-01  0.1141E-01  0.2954E-03  0.2930E-03  0.1796E-03  0.1823E-03  0.2954E-03  0.2930E-03  0.1656E-04  0.1165E-04  0.1301E-06  0.6737E-07  0.2647E-04  0.1865E-04  0.1301E-06  0.6737E-07  0.1656E-04  0.1165E-04
      2.012  0.4254E-01  0.4179E-01  0.1067E-02  0.1049E-02  0.1448E-02  0.1453E-02  0.1067E-02  0.1049E-02  0.5824E-04  0.3932E-04  0.7432E-04  0.5257E-04  0.7499E-04  0.5000E-04  0.7432E-04  0.5257E-04  0.5824E-04  0.3932E-04
      2.181  0.1950E-01  0.1863E-01  0.8717E-03  0.8361E-03  0.2158E-03  0.2031E-03  0.8717E-03  0.8361E-03  0.7942E-04  0.5071E-04  0.3205E-04  0.1953E-04  0.4053E-04  0.2859E-04  0.3205E-04  0.1953E-04  0.7942E-04  0.5071E-04
      2.351  0.1139E-01  0.1174E-01  0.4885E-03  0.5276E-03  0.3321E-03  0.2772E-03  0.4885E-03  0.5276E-03  0.4315E-04  0.3204E-04  0.4659E-04  0.2816E-04  0.1610E-04  0.1225E-04  0.4659E-04  0.2816E-04  0.4315E-04  0.3204E-04
      2.520  0.1887E-01  0.1992E-01  0.5622E-03  0.6044E-03  0.1381E-02  0.1471E-02  0.5622E-03  0.6044E-03  0.3876E-04  0.2756E-04  0.1237E-03  0.9029E-04  0.9858E-04  0.6283E-04  0.1237E-03  0.9029E-04  0.3876E-04  0.2756E-04
      2.690  0.4528E-01  0.3887E-01  0.1954E-02  0.1630E-02  0.3303E-02  0.3030E-02  0.1954E-02  0.1630E-02  0.2551E-03  0.1309E-03  0.2930E-03  0.1904E-03  0.5218E-03  0.2661E-03  0.2930E-03  0.1904E-03  0.2551E-03  0.1309E-03
      2.859  0.4128E-01  0.4202E-01  0.3246E-02  0.3183E-02  0.7711E-03  0.1067E-02  0.3246E-02  0.3183E-02  0.5655E-03  0.3538E-03  0.2107E-03  0.1225E-03  0.3733E-03  0.2848E-03  0.2107E-03  0.1225E-03  0.5655E-03  0.3538E-03
      3.029  0.7232E-02  0.9990E-02  0.4682E-03  0.8118E-03  0.4955E-03  0.2316E-03  0.4682E-03  0.8118E-03  0.8612E-04  0.9197E-04  0.8346E-04  0.4450E-04  0.9289E-04  0.5525E-04  0.8346E-04  0.4450E-04  0.8612E-04  0.9197E-04
      3.198  0.4923E-01  0.3042E-01  0.3734E-02  0.2011E-02  0.3331E-02  0.2651E-02  0.3734E-02  0.2011E-02  0.9331E-03  0.2773E-03  0.8862E-03  0.2969E-03  0.5552E-03  0.2899E-03  0.8862E-03  0.2969E-03  0.9331E-03  0.2773E-03
      3.367  0.4104E-01  0.6231E-01  0.2791E-02  0.4971E-02  0.3864E-02  0.4741E-02  0.2791E-02  0.4971E-02  0.6514E-03  0.7212E-03  0.9753E-03  0.9185E-03  0.7089E-03  0.3830E-03  0.9753E-03  0.9185E-03  0.6514E-03  0.7212E-03
      3.537  0.1875E-01  0.3298E-02  0.8724E-03  0.4306E-04  0.3114E-02  0.7366E-03  0.8724E-03  0.4306E-04  0.3208E-03  0.4614E-05  0.4483E-03  0.1730E-04  0.1682E-02  0.2345E-03  0.4483E-03  0.1730E-04  0.3208E-03  0.4614E-05
      3.706  0.2015E-01  0.3261E-01  0.2012E-02  0.2168E-02  0.1503E-02  0.4687E-02  0.2012E-02  0.2168E-02  0.7422E-03  0.4534E-03  0.4509E-03  0.5231E-03  0.9435E-03  0.1291E-02  0.4509E-03  0.5231E-03  0.7422E-03  0.4534E-03
      3.876  0.7007E-01  0.3420E-01  0.8025E-02  0.4333E-02  0.5651E-02  0.2186E-02  0.8025E-02  0.4333E-02  0.3362E-02  0.9075E-03  0.2773E-02  0.7022E-03  0.2178E-02  0.5286E-03  0.2773E-02  0.7022E-03  0.3362E-02  0.9075E-03
      4.045  0.4323E-01  0.6980E-01  0.4704E-02  0.8147E-02  0.4597E-02  0.6613E-02  0.4704E-02  0.8147E-02  0.2501E-02  0.2144E-02  0.1941E-02  0.1458E-02  0.2693E-02  0.1983E-02  0.1941E-02  0.1458E-02  0.2501E-02  0.2144E-02
      4.215  0.5865E-01  0.3502E-01  0.6891E-02  0.3777E-02  0.6285E-02  0.5067E-02  0.6891E-02  0.3777E-02  0.4842E-02  0.9538E-03  0.5182E-02  0.1407E-02  0.3670E-02  0.1069E-02  0.5182E-02  0.1407E-02  0.4842E-02  0.9538E-03
      4.384  0.2767E-01  0.4075E-01  0.2853E-02  0.5641E-02  0.3395E-02  0.3851E-02  0.2853E-02  0.5641E-02  0.3617E-02  0.2010E-02  0.1111E-02  0.2128E-02  0.8362E-02  0.9158E-03  0.1111E-02  0.2128E-02  0.3617E-02  0.2010E-02
      4.553  0.5140E-01  0.2466E-01  0.5872E-02  0.3881E-02  0.9256E-02  0.1477E-02  0.5872E-02  0.3881E-02  0.5943E-02  0.2189E-02  0.1074E-01  0.5039E-03  0.2701E-02  0.1898E-02  0.1074E-01  0.5039E-03  0.5943E-02  0.2189E-02
      4.723  0.4529E-01  0.3664E-01  0.4995E-02  0.2883E-02  0.8661E-02  0.1011E-01  0.4995E-02  0.2883E-02  0.7081E-02  0.8329E-03  0.1013E-01  0.2528E-02  0.1071E-01  0.4465E-02  0.1013E-01  0.2528E-02  0.7081E-02  0.8329E-03
      4.892  0.1104E+00  0.4668E-01  0.1689E-01  0.6963E-02  0.7384E-02  0.6883E-02  0.1689E-01  0.6963E-02  0.4627E-01  0.3649E-02  0.3361E-01  0.5536E-02  0.4719E-01  0.8506E-03  0.3361E-01  0.5536E-02  0.4627E-01  0.3649E-02
      5.062  0.8556E-01  0.5390E-01  0.9531E-02  0.9136E-02  0.9780E-02  0.8609E-02  0.9531E-02  0.9136E-02  0.5700E-01  0.4263E-02  0.7555E-01  0.3263E-02  0.4805E-01  0.6237E-02  0.7555E-01  0.3263E-02  0.5700E-01  0.4263E-02
      5.231  0.7195E-01  0.5031E-01  0.8848E-02  0.9246E-02  0.1235E-01  0.6176E-02  0.8848E-02  0.9246E-02  0.5838E-01  0.7894E-02  0.6953E-01  0.3879E-02  0.6588E-01  0.6944E-02  0.6953E-01  0.3879E-02  0.5838E-01  0.7894E-02
      5.401  0.8085E-01  0.4843E-01  0.1275E-01  0.1032E-01  0.1481E-01  0.3792E-02  0.1275E-01  0.1032E-01  0.1421E+00  0.8785E-02  0.1068E+00  0.6047E-02  0.1076E+00  0.7378E-02  0.1068E+00  0.6047E-02  0.1421E+00  0.8785E-02
      5.570  0.5498E-01  0.5726E-01  0.1314E-01  0.8236E-02  0.1471E-01  0.1443E-01  0.1314E-01  0.8236E-02  0.1137E+00  0.8945E-02  0.1007E+00  0.1215E-01  0.9366E-01  0.1238E-01  0.1007E+00  0.1215E-01  0.1137E+00  0.8945E-02
      5.739  0.4851E-01  0.7041E-01  0.1601E-01  0.1183E-01  0.1649E-01  0.1271E-01  0.1601E-01  0.1183E-01  0.1380E+00  0.2020E-01  0.1930E+00  0.2396E-01  0.1891E+00  0.1232E-01  0.1930E+00  0.2396E-01  0.1380E+00  0.2020E-01
      5.909  0.2624E-01  0.3246E-01  0.1439E-01  0.2456E-02  0.1864E-01  0.8737E-02  0.1439E-01  0.2456E-02  0.9280E-01  0.8093E-02  0.1636E+00  0.1094E-01  0.9651E-01  0.3379E-01  0.1636E+00  0.1094E-01  0.9280E-01  0.8093E-02
      6.078  0.2329E-01  0.9338E-01  0.2022E-01  0.1682E-01  0.1455E-01  0.8547E-02  0.2022E-01  0.1682E-01  0.1256E+00  0.6221E-01  0.1309E+00  0.5542E-01  0.1970E+00  0.3918E-01  0.1309E+00  0.5542E-01  0.1256E+00  0.6221E-01
      6.248  0.1085E-01  0.8488E-01  0.1542E-01  0.1848E-01  0.1394E-01  0.1695E-01  0.1542E-01  0.1848E-01  0.1456E+00  0.4373E-01  0.1195E+00  0.5395E-01  0.2040E+00  0.3826E-01  0.1195E+00  0.5395E-01  0.1456E+00  0.4373E-01
      6.417  0.1074E-01  0.5883E-01  0.2431E-01  0.1079E-01  0.1563E-01  0.1438E-01  0.2431E-01  0.1079E-01  0.2330E+00  0.4441E-01  0.1232E+00  0.5834E-01  0.2082E+00  0.6021E-01  0.1232E+00  0.5834E-01  0.2330E+00  0.4441E-01
      6.587  0.1198E-01  0.3688E-01  0.2408E-01  0.8762E-02  0.1754E-01  0.1236E-01  0.2408E-01  0.8762E-02  0.2397E+00  0.6408E-01  0.1422E+00  0.5197E-01  0.2217E+00  0.2563E-01  0.1422E+00  0.5197E-01  0.2397E+00  0.6408E-01
      6.756  0.1084E-01  0.5105E-01  0.2091E-01  0.1584E-01  0.1666E-01  0.1887E-01  0.2091E-01  0.1584E-01  0.2029E+00  0.8451E-01  0.1005E+00  0.7714E-01  0.1563E+00  0.1007E+00  0.1005E+00  0.7714E-01  0.2029E+00  0.8451E-01
      6.926  0.4200E-02  0.3286E-01  0.7865E-02  0.1529E-01  0.1051E-01  0.1797E-01  0.7865E-02  0.1529E-01  0.1230E+00  0.9829E-01  0.6462E-01  0.1318E+00  0.1320E+00  0.7962E-01  0.6462E-01  0.1318E+00  0.1230E+00  0.9829E-01
      7.095  0.9265E-02  0.1825E-01  0.1858E-01  0.1517E-01  0.2056E-01  0.2248E-01  0.1858E-01  0.1517E-01  0.1735E+00  0.6597E-01  0.2973E+00  0.1859E+00  0.3621E+00  0.8555E-01  0.2973E+00  0.1859E+00  0.1735E+00  0.6597E-01
      7.264  0.1255E-01  0.9205E-02  0.1953E-01  0.1781E-01  0.2267E-01  0.1260E-01  0.1953E-01  0.1781E-01  0.2200E+00  0.9900E-01  0.3199E+00  0.7473E-01  0.2842E+00  0.1142E+00  0.3199E+00  0.7473E-01  0.2200E+00  0.9900E-01