   2   2   1   0
  0.1181538E+02  0.2567044E-09  0.2567044E-09  0.4140763E-09  0.5000000E-15
  1.000000000000000E-004
  CAR 
 Co-hcc                                  
     53.40020678     -1.84265280  301      9.07193674      1.00000000
     -1.843  0.0000E+00  0.0000E+00  0.0000E+00  0.0000E+00
     -1.659  0.0000E+00  0.0000E+00  0.0000E+00  0.0000E+00
     -1.474  0.0000E+00  0.0000E+00  0.0000E+00  0.0000E+00
     -1.290  0.0000E+00  0.0000E+00  0.0000E+00  0.0000E+00
     -1.106  0.0000E+00  0.0000E+00  0.0000E+00  0.0000E+00
     -0.922  0.0000E+00  0.0000E+00  0.0000E+00  0.0000E+00
     -0.738  0.0000E+00  0.0000E+00  0.0000E+00  0.0000E+00
     -0.554  0.0000E+00  0.0000E+00  0.0000E+00  0.0000E+00
     -0.370  0.0000E+00  0.0000E+00  0.0000E+00  0.0000E+00
     -0.185  0.0000E+00  0.0000E+00  0.0000E+00  0.0000E+00
     -0.001  0.0000E+00  0.0000E+00  0.0000E+00  0.0000E+00
      0.183  0.0000E+00  0.0000E+00  0.0000E+00  0.0000E+00
      0.367  0.0000E+00  0.0000E+00  0.0000E+00  0.0000E+00
      0.551  0.5879E-08  0.2165E-07  0.1083E-08  0.3986E-08
      0.735  0.4463E-04  0.4672E-04  0.8220E-05  0.8607E-05
      0.919  0.2731E-03  0.3042E-03  0.5851E-04  0.6463E-04
      1.104  0.6256E-03  0.6135E-03  0.1737E-03  0.1776E-03
      1.288  0.1261E-03  0.1178E-03  0.1969E-03  0.1993E-03
      1.472  0.6557E-03  0.7212E-03  0.3177E-03  0.3321E-03
      1.656  0.1097E-02  0.1025E-02  0.5197E-03  0.5209E-03
      1.840  0.5397E-03  0.5322E-03  0.6190E-03  0.6190E-03
      2.024  0.6465E-03  0.6445E-03  0.7381E-03  0.7376E-03
      2.208  0.1453E-02  0.1371E-02  0.1006E-02  0.9901E-03
      2.393  0.1349E-02  0.1398E-02  0.1254E-02  0.1248E-02
      2.577  0.5517E-03  0.3624E-03  0.1356E-02  0.1314E-02
      2.761  0.2339E-02  0.2093E-02  0.1786E-02  0.1700E-02
      2.945  0.3708E-03  0.8095E-03  0.1855E-02  0.1849E-02
      3.129  0.1195E-02  0.9856E-03  0.2075E-02  0.2030E-02
      3.313  0.2244E-02  0.8863E-03  0.2488E-02  0.2193E-02
      3.497  0.2095E-02  0.3043E-02  0.2874E-02  0.2754E-02
      3.682  0.2735E-02  0.1622E-02  0.3378E-02  0.3053E-02
      3.866  0.1432E-02  0.1776E-02  0.3641E-02  0.3380E-02
      4.050  0.3079E-02  0.1081E-02  0.4208E-02  0.3579E-02
      4.234  0.3615E-02  0.2204E-02  0.4874E-02  0.3984E-02
      4.418  0.8983E-02  0.2437E-02  0.6528E-02  0.4433E-02
      4.602  0.1048E-01  0.2549E-02  0.8458E-02  0.4902E-02
      4.786  0.1322E-01  0.3312E-02  0.1089E-01  0.5512E-02
      4.971  0.1342E-01  0.3444E-02  0.1336E-01  0.6146E-02
      5.155  0.2391E-01  0.4589E-02  0.1777E-01  0.6991E-02
      5.339  0.1717E-01  0.2884E-02  0.2093E-01  0.7523E-02
      5.523  0.1930E-01  0.8342E-02  0.2448E-01  0.9059E-02
      5.707  0.1998E-01  0.9462E-02  0.2816E-01  0.1080E-01
      5.891  0.2394E-01  0.8138E-02  0.3257E-01  0.1230E-01
      6.075  0.2455E-01  0.7399E-02  0.3709E-01  0.1366E-01
      6.260  0.1186E-01  0.1350E-01  0.3927E-01  0.1615E-01
      6.444  0.3106E-01  0.1366E-01  0.4499E-01  0.1866E-01
      6.628  0.3197E-01  0.1576E-01  0.5088E-01  0.2157E-01
      6.812  0.3502E-01  0.1402E-01  0.5733E-01  0.2415E-01
      6.996  0.3599E-01  0.1576E-01  0.6396E-01  0.2705E-01
      7.180  0.2883E-01  0.2057E-01  0.6927E-01  0.3084E-01
      7.364  0.1947E-01  0.2421E-01  0.7285E-01  0.3530E-01
      7.549  0.2647E-01  0.1127E-01  0.7773E-01  0.3737E-01
      7.733  0.1599E-01  0.9962E-02  0.8067E-01  0.3920E-01
      7.917  0.2724E-01  0.1811E-01  0.8569E-01  0.4254E-01
      8.101  0.3300E-01  0.2547E-01  0.9176E-01  0.4723E-01
      8.285  0.5228E-01  0.2949E-01  0.1014E+00  0.5266E-01
      8.469  0.1649E-01  0.2847E-01  0.1044E+00  0.5790E-01
      8.653  0.1582E-02  0.3382E-01  0.1047E+00  0.6413E-01
      8.838  0.7025E-02  0.2312E-01  0.1060E+00  0.6839E-01
      9.022  0.4406E-02  0.1902E-01  0.1068E+00  0.7189E-01
      9.206  0.2468E-02  0.1508E-01  0.1073E+00  0.7467E-01
      9.390  0.1183E-02  0.2041E-01  0.1075E+00  0.7843E-01
      9.574  0.1042E-02  0.1253E-01  0.1077E+00  0.8073E-01
      9.758  0.2563E-02  0.1969E-01  0.1082E+00  0.8436E-01
      9.942  0.6006E-02  0.2441E-01  0.1093E+00  0.8885E-01
     10.127  0.4772E-02  0.3571E-01  0.1101E+00  0.9543E-01
     10.311  0.2548E-02  0.4625E-01  0.1106E+00  0.1039E+00
     10.495  0.2064E-02  0.1230E-01  0.1110E+00  0.1062E+00
     10.679  0.1225E-02  0.5025E-02  0.1112E+00  0.1071E+00
     10.863  0.3477E-02  0.3702E-02  0.1119E+00  0.1078E+00
     11.047  0.1147E-02  0.3553E-02  0.1121E+00  0.1085E+00
     11.231  0.4076E-02  0.4275E-02  0.1128E+00  0.1093E+00
     11.416  0.9432E-03  0.5302E-02  0.1130E+00  0.1102E+00
     11.600  0.4455E-02  0.4551E-02  0.1138E+00  0.1111E+00
     11.784  0.1178E-02  0.2697E-02  0.1140E+00  0.1116E+00
     11.968  0.1613E-02  0.2827E-02  0.1143E+00  0.1121E+00
     12.152  0.2138E-02  0.1363E-02  0.1147E+00  0.1123E+00
     12.336  0.5884E-02  0.4791E-02  0.1158E+00  0.1132E+00
     12.520  0.1961E-02  0.1754E-02  0.1162E+00  0.1135E+00
     12.705  0.2166E-02  0.2622E-02  0.1166E+00  0.1140E+00
     12.889  0.1943E-02  0.2824E-02  0.1169E+00  0.1145E+00
     13.073  0.7990E-03  0.4125E-02  0.1171E+00  0.1153E+00
     13.257  0.1538E-02  0.3150E-02  0.1174E+00  0.1159E+00
     13.441  0.1248E-02  0.1444E-02  0.1176E+00  0.1162E+00
     13.625  0.1441E-02  0.2680E-02  0.1178E+00  0.1166E+00
     13.809  0.7494E-03  0.2333E-02  0.1180E+00  0.1171E+00
     13.994  0.5581E-02  0.1706E-02  0.1190E+00  0.1174E+00
     14.178  0.1917E-02  0.1293E-02  0.1194E+00  0.1176E+00
     14.362  0.1520E-02  0.1444E-02  0.1196E+00  0.1179E+00
     14.546  0.1217E-03  0.1511E-02  0.1197E+00  0.1182E+00
     14.730  0.2989E-04  0.5007E-02  0.1197E+00  0.1191E+00
     14.914  0.7349E-03  0.2056E-02  0.1198E+00  0.1195E+00
     15.098  0.1265E-02  0.1034E-02  0.1200E+00  0.1197E+00
     15.283  0.1167E-02  0.2614E-04  0.1203E+00  0.1197E+00
     15.467  0.2986E-03  0.2619E-06  0.1203E+00  0.1197E+00
     15.651  0.1263E-02  0.9294E-03  0.1205E+00  0.1198E+00
     15.835  0.2954E-02  0.1006E-02  0.1211E+00  0.1200E+00
     16.019  0.3204E-02  0.8307E-03  0.1217E+00  0.1202E+00
     16.203  0.8939E-02  0.8723E-03  0.1233E+00  0.1203E+00
     16.387  0.1732E-02  0.1246E-02  0.1236E+00  0.1206E+00
     16.572  0.4218E-02  0.9030E-03  0.1244E+00  0.1207E+00
     16.756  0.3332E-02  0.6616E-02  0.1250E+00  0.1220E+00
     16.940  0.3616E-02  0.6582E-02  0.1257E+00  0.1232E+00
     17.124  0.2037E-02  0.3065E-02  0.1261E+00  0.1237E+00
     17.308  0.4186E-02  0.4723E-02  0.1268E+00  0.1246E+00
     17.492  0.2965E-02  0.3395E-02  0.1274E+00  0.1252E+00
     17.676  0.2578E-02  0.3996E-02  0.1279E+00  0.1260E+00
     17.861  0.3280E-02  0.3144E-02  0.1285E+00  0.1265E+00
     18.045  0.3057E-02  0.2877E-02  0.1290E+00  0.1271E+00
     18.229  0.4488E-02  0.4078E-02  0.1299E+00  0.1278E+00
     18.413  0.4701E-02  0.3496E-02  0.1307E+00  0.1285E+00
     18.597  0.2082E-02  0.3046E-02  0.1311E+00  0.1290E+00
     18.781  0.6036E-02  0.3041E-02  0.1322E+00  0.1296E+00
     18.965  0.2254E-02  0.5922E-02  0.1326E+00  0.1307E+00
     19.150  0.4332E-02  0.4551E-02  0.1334E+00  0.1315E+00
     19.334  0.5363E-02  0.4614E-02  0.1344E+00  0.1324E+00
     19.518  0.2864E-02  0.2234E-02  0.1350E+00  0.1328E+00
     19.702  0.2793E-02  0.5860E-02  0.1355E+00  0.1339E+00
     19.886  0.2465E-02  0.3913E-02  0.1359E+00  0.1346E+00
     20.070  0.5912E-02  0.3908E-02  0.1370E+00  0.1353E+00
     20.254  0.2763E-02  0.2572E-02  0.1375E+00  0.1358E+00
     20.439  0.3394E-02  0.3239E-02  0.1381E+00  0.1364E+00
     20.623  0.1170E-02  0.5975E-02  0.1384E+00  0.1375E+00
     20.807  0.3322E-02  0.1267E-02  0.1390E+00  0.1377E+00
     20.991  0.2938E-02  0.2928E-02  0.1395E+00  0.1382E+00
     21.175  0.1547E-02  0.3185E-02  0.1398E+00  0.1388E+00
     21.359  0.3093E-02  0.2592E-02  0.1404E+00  0.1393E+00
     21.543  0.5433E-02  0.1819E-02  0.1414E+00  0.1396E+00
     21.728  0.3270E-02  0.2851E-02  0.1420E+00  0.1402E+00
     21.912  0.1228E-02  0.5746E-02  0.1422E+00  0.1412E+00
     22.096  0.2557E-02  0.2859E-02  0.1427E+00  0.1417E+00
     22.280  0.6858E-02  0.2019E-02  0.1439E+00  0.1421E+00
     22.464  0.2660E-02  0.2656E-02  0.1444E+00  0.1426E+00
     22.648  0.2827E-02  0.6558E-02  0.1449E+00  0.1438E+00
     22.832  0.4341E-02  0.3146E-02  0.1457E+00  0.1444E+00
     23.017  0.2654E-02  0.1755E-02  0.1462E+00  0.1447E+00
     23.201  0.5037E-02  0.4969E-02  0.1472E+00  0.1456E+00
     23.385  0.4734E-02  0.3586E-02  0.1480E+00  0.1463E+00
     23.569  0.5123E-02  0.5663E-02  0.1490E+00  0.1473E+00
     23.753  0.6090E-02  0.4338E-02  0.1501E+00  0.1481E+00
     23.937  0.4511E-02  0.4548E-02  0.1509E+00  0.1490E+00
     24.121  0.2414E-02  0.6536E-02  0.1514E+00  0.1502E+00
     24.306  0.2195E-02  0.4084E-02  0.1518E+00  0.1509E+00
     24.490  0.6636E-02  0.2988E-02  0.1530E+00  0.1515E+00
     24.674  0.2048E-02  0.4281E-02  0.1534E+00  0.1523E+00
     24.858  0.5352E-02  0.5339E-02  0.1544E+00  0.1532E+00
     25.042  0.7139E-02  0.1275E-02  0.1557E+00  0.1535E+00
     25.226  0.3158E-02  0.7607E-02  0.1562E+00  0.1549E+00
     25.410  0.3242E-02  0.5683E-02  0.1568E+00  0.1559E+00
     25.595  0.6125E-02  0.3298E-02  0.1580E+00  0.1565E+00
     25.779  0.3637E-02  0.2878E-02  0.1586E+00  0.1571E+00
     25.963  0.3003E-02  0.7323E-02  0.1592E+00  0.1584E+00
     26.147  0.4287E-02  0.2624E-02  0.1600E+00  0.1589E+00
     26.331  0.3526E-02  0.3650E-02  0.1606E+00  0.1596E+00
     26.515  0.4107E-02  0.4226E-02  0.1614E+00  0.1603E+00
     26.699  0.4033E-02  0.4037E-02  0.1621E+00  0.1611E+00
     26.884  0.5586E-02  0.3399E-02  0.1632E+00  0.1617E+00
     27.068  0.2255E-02  0.5720E-02  0.1636E+00  0.1628E+00
     27.252  0.8430E-02  0.4857E-02  0.1651E+00  0.1637E+00
     27.436  0.3611E-02  0.4075E-02  0.1658E+00  0.1644E+00
     27.620  0.2714E-02  0.6765E-02  0.1663E+00  0.1657E+00
     27.804  0.5122E-02  0.2404E-02  0.1672E+00  0.1661E+00
     27.988  0.4021E-02  0.4782E-02  0.1680E+00  0.1670E+00
     28.173  0.2581E-02  0.4963E-02  0.1685E+00  0.1679E+00
     28.357  0.5231E-02  0.3051E-02  0.1694E+00  0.1685E+00
     28.541  0.4098E-02  0.6128E-02  0.1702E+00  0.1696E+00
     28.725  0.4219E-02  0.2201E-02  0.1709E+00  0.1700E+00
     28.909  0.3135E-02  0.5240E-02  0.1715E+00  0.1710E+00
     29.093  0.1834E-02  0.3561E-02  0.1719E+00  0.1716E+00
     29.277  0.6182E-02  0.1415E-02  0.1730E+00  0.1719E+00
     29.462  0.6226E-02  0.5865E-02  0.1741E+00  0.1730E+00
     29.646  0.5474E-02  0.6752E-02  0.1752E+00  0.1742E+00
     29.830  0.4925E-02  0.5435E-02  0.1761E+00  0.1752E+00
     30.014  0.3005E-02  0.3418E-02  0.1766E+00  0.1758E+00
     30.198  0.4432E-02  0.3957E-02  0.1774E+00  0.1766E+00
     30.382  0.5061E-02  0.5356E-02  0.1784E+00  0.1775E+00
     30.566  0.4873E-02  0.5221E-02  0.1793E+00  0.1785E+00
     30.751  0.5794E-02  0.5407E-02  0.1803E+00  0.1795E+00
     30.935  0.2118E-02  0.4790E-02  0.1807E+00  0.1804E+00
     31.119  0.2353E-02  0.1937E-02  0.1812E+00  0.1807E+00
     31.303  0.1764E-02  0.1152E-02  0.1815E+00  0.1810E+00
     31.487  0.7384E-02  0.4513E-02  0.1828E+00  0.1818E+00
     31.671  0.7555E-02  0.4853E-02  0.1842E+00  0.1827E+00
     31.855  0.5625E-02  0.5635E-02  0.1853E+00  0.1837E+00
     32.040  0.7782E-02  0.7822E-02  0.1867E+00  0.1852E+00
     32.224  0.2989E-02  0.8910E-02  0.1872E+00  0.1868E+00
     32.408  0.6460E-02  0.3794E-02  0.1884E+00  0.1875E+00
     32.592  0.4798E-02  0.5224E-02  0.1893E+00  0.1885E+00
     32.776  0.3867E-02  0.4609E-02  0.1900E+00  0.1893E+00
     32.960  0.3495E-02  0.4826E-02  0.1907E+00  0.1902E+00
     33.144  0.3079E-02  0.4024E-02  0.1912E+00  0.1909E+00
     33.329  0.2964E-02  0.3234E-02  0.1918E+00  0.1915E+00
     33.513  0.3125E-02  0.2049E-02  0.1924E+00  0.1919E+00
     33.697  0.5717E-02  0.3962E-02  0.1934E+00  0.1926E+00
     33.881  0.3235E-02  0.4509E-02  0.1940E+00  0.1935E+00
     34.065  0.3556E-02  0.2137E-02  0.1947E+00  0.1939E+00
     34.249  0.6963E-02  0.5064E-02  0.1959E+00  0.1948E+00
     34.433  0.8330E-02  0.5662E-02  0.1975E+00  0.1958E+00
     34.618  0.1245E-02  0.8015E-02  0.1977E+00  0.1973E+00
     34.802  0.3920E-02  0.2206E-02  0.1984E+00  0.1977E+00
     34.986  0.3777E-02  0.2049E-02  0.1991E+00  0.1981E+00
     35.170  0.5403E-02  0.6730E-02  0.2001E+00  0.1993E+00
     35.354  0.5161E-02  0.4201E-02  0.2011E+00  0.2001E+00
     35.538  0.3672E-02  0.5351E-02  0.2018E+00  0.2011E+00
     35.722  0.4386E-02  0.3562E-02  0.2026E+00  0.2018E+00
     35.907  0.7359E-02  0.3616E-02  0.2039E+00  0.2024E+00
     36.091  0.5643E-02  0.6834E-02  0.2050E+00  0.2037E+00
     36.275  0.2003E-02  0.7079E-02  0.2053E+00  0.2050E+00
     36.459  0.3644E-02  0.2450E-02  0.2060E+00  0.2054E+00
     36.643  0.3829E-02  0.3472E-02  0.2067E+00  0.2061E+00
     36.827  0.2454E-02  0.3735E-02  0.2071E+00  0.2068E+00
     37.011  0.7197E-02  0.4049E-02  0.2085E+00  0.2075E+00
     37.196  0.5535E-02  0.4124E-02  0.2095E+00  0.2083E+00
     37.380  0.4482E-02  0.5961E-02  0.2103E+00  0.2094E+00
     37.564  0.5869E-02  0.6391E-02  0.2114E+00  0.2105E+00
     37.748  0.6691E-02  0.5574E-02  0.2126E+00  0.2116E+00
     37.932  0.6139E-02  0.6587E-02  0.2138E+00  0.2128E+00
     38.116  0.2602E-02  0.5834E-02  0.2142E+00  0.2138E+00
     38.300  0.4309E-02  0.3063E-02  0.2150E+00  0.2144E+00
     38.485  0.4663E-02  0.3753E-02  0.2159E+00  0.2151E+00
     38.669  0.5874E-02  0.6090E-02  0.2170E+00  0.2162E+00
     38.853  0.3618E-02  0.4760E-02  0.2176E+00  0.2171E+00
     39.037  0.1422E-02  0.3662E-02  0.2179E+00  0.2178E+00
     39.221  0.2752E-02  0.9359E-03  0.2184E+00  0.2179E+00
     39.405  0.6000E-02  0.3968E-02  0.2195E+00  0.2187E+00
     39.589  0.8292E-02  0.5232E-02  0.2210E+00  0.2196E+00
     39.774  0.8450E-02  0.6157E-02  0.2226E+00  0.2208E+00
     39.958  0.4849E-02  0.7614E-02  0.2235E+00  0.2222E+00
     40.142  0.5349E-02  0.7012E-02  0.2245E+00  0.2235E+00
     40.326  0.6894E-02  0.7458E-02  0.2257E+00  0.2248E+00
     40.510  0.4713E-02  0.3673E-02  0.2266E+00  0.2255E+00
     40.694  0.4865E-02  0.6536E-02  0.2275E+00  0.2267E+00
     40.878  0.5801E-02  0.4392E-02  0.2286E+00  0.2275E+00
     41.063  0.3407E-02  0.6020E-02  0.2292E+00  0.2286E+00
     41.247  0.8476E-02  0.5612E-02  0.2308E+00  0.2297E+00
     41.431  0.5392E-02  0.6088E-02  0.2318E+00  0.2308E+00
     41.615  0.3755E-02  0.6730E-02  0.2324E+00  0.2320E+00
     41.799  0.6463E-02  0.1627E-02  0.2336E+00  0.2323E+00
     41.983  0.4410E-02  0.3702E-02  0.2345E+00  0.2330E+00
     42.167  0.5364E-02  0.8520E-02  0.2354E+00  0.2346E+00
     42.352  0.4593E-02  0.4001E-02  0.2363E+00  0.2353E+00
     42.536  0.3558E-02  0.5450E-02  0.2369E+00  0.2363E+00
     42.720  0.6674E-02  0.6453E-02  0.2382E+00  0.2375E+00
     42.904  0.4251E-02  0.4185E-02  0.2390E+00  0.2383E+00
     43.088  0.6131E-02  0.2263E-02  0.2401E+00  0.2387E+00
     43.272  0.5591E-02  0.6027E-02  0.2411E+00  0.2398E+00
     43.456  0.7863E-02  0.7908E-02  0.2426E+00  0.2413E+00
     43.641  0.6252E-02  0.6241E-02  0.2437E+00  0.2424E+00
     43.825  0.7508E-02  0.3589E-02  0.2451E+00  0.2431E+00
     44.009  0.4844E-02  0.7092E-02  0.2460E+00  0.2444E+00
     44.193  0.2238E-02  0.3283E-02  0.2464E+00  0.2450E+00
     44.377  0.6393E-02  0.5409E-02  0.2476E+00  0.2460E+00
     44.561  0.5629E-02  0.4641E-02  0.2486E+00  0.2468E+00
     44.745  0.9988E-02  0.5000E-02  0.2504E+00  0.2478E+00
     44.930  0.1134E-01  0.5854E-02  0.2525E+00  0.2488E+00
     45.114  0.8973E-02  0.5080E-02  0.2542E+00  0.2498E+00
     45.298  0.4412E-02  0.5256E-02  0.2550E+00  0.2507E+00
     45.482  0.1251E-01  0.5635E-02  0.2573E+00  0.2518E+00
     45.666  0.1861E-01  0.8745E-02  0.2607E+00  0.2534E+00
     45.850  0.2115E-01  0.5505E-02  0.2646E+00  0.2544E+00
     46.034  0.1777E-01  0.7373E-02  0.2679E+00  0.2558E+00
     46.219  0.1008E-01  0.3661E-02  0.2698E+00  0.2564E+00
     46.403  0.4730E-02  0.5051E-02  0.2706E+00  0.2574E+00
     46.587  0.8084E-02  0.5587E-02  0.2721E+00  0.2584E+00
     46.771  0.5382E-02  0.3641E-02  0.2731E+00  0.2591E+00
     46.955  0.4818E-02  0.4068E-02  0.2740E+00  0.2598E+00
     47.139  0.4690E-02  0.3976E-02  0.2749E+00  0.2605E+00
     47.323  0.9259E-03  0.1889E-02  0.2750E+00  0.2609E+00
     47.508  0.6415E-02  0.3526E-02  0.2762E+00  0.2615E+00
     47.692  0.3835E-02  0.8850E-02  0.2769E+00  0.2632E+00
     47.876  0.8989E-03  0.6947E-02  0.2771E+00  0.2645E+00
     48.060  0.2428E-02  0.8439E-02  0.2775E+00  0.2660E+00
     48.244  0.3562E-02  0.4200E-02  0.2782E+00  0.2668E+00
     48.428  0.6575E-03  0.4302E-02  0.2783E+00  0.2676E+00
     48.612  0.8182E-03  0.5604E-02  0.2785E+00  0.2686E+00
     48.797  0.4976E-03  0.7257E-02  0.2785E+00  0.2699E+00
     48.981  0.2165E-02  0.6359E-02  0.2789E+00  0.2711E+00
     49.165  0.9040E-03  0.6684E-02  0.2791E+00  0.2723E+00
     49.349  0.1270E-02  0.6024E-02  0.2793E+00  0.2734E+00
     49.533  0.3278E-05  0.4172E-02  0.2793E+00  0.2742E+00
     49.717  0.1121E-02  0.6630E-02  0.2796E+00  0.2754E+00
     49.901  0.5602E-03  0.9894E-02  0.2797E+00  0.2773E+00
     50.086  0.1548E-03  0.8149E-02  0.2797E+00  0.2788E+00
     50.270  0.4210E-03  0.3423E-02  0.2798E+00  0.2794E+00
     50.454  0.9932E-03  0.1033E-02  0.2799E+00  0.2796E+00
     50.638  0.1901E-07  0.7182E-03  0.2799E+00  0.2797E+00
     50.822  0.2582E-04  0.1091E-02  0.2800E+00  0.2799E+00
     51.006  0.2570E-03  0.4642E-03  0.2800E+00  0.2800E+00
     51.190  0.1504E-07  0.1299E-06  0.2800E+00  0.2800E+00
     51.375  0.0000E+00  0.0000E+00  0.2800E+00  0.2800E+00
     51.559  0.0000E+00  0.0000E+00  0.2800E+00  0.2800E+00
     51.743  0.0000E+00  0.0000E+00  0.2800E+00  0.2800E+00
     51.927  0.0000E+00  0.0000E+00  0.2800E+00  0.2800E+00
     52.111  0.0000E+00  0.0000E+00  0.2800E+00  0.2800E+00
     52.295  0.0000E+00  0.0000E+00  0.2800E+00  0.2800E+00
     52.479  0.0000E+00  0.0000E+00  0.2800E+00  0.2800E+00
     52.664  0.0000E+00  0.0000E+00  0.2800E+00  0.2800E+00
     52.848  0.0000E+00  0.0000E+00  0.2800E+00  0.2800E+00
     53.032  0.0000E+00  0.0000E+00  0.2800E+00  0.2800E+00
     53.216  0.0000E+00  0.0000E+00  0.2800E+00  0.2800E+00
     53.400  0.0000E+00  0.0000E+00  0.2800E+00  0.2800E+00
     53.40020678     -1.84265280  301      9.07193674      1.00000000
     -1.843  0.0000E+00  0.0000E+00  0.0000E+00  0.0000E+00  0.0000E+00  0.0000E+00  0.0000E+00  0.0000E+00  0.0000E+00  0.0000E+00  0.0000E+00  0.0000E+00  0.0000E+00  0.0000E+00  0.0000E+00  0.0000E+00  0.0000E+00  0.0000E+00
     -1.659  0.0000E+00  0.0000E+00  0.0000E+00  0.0000E+00  0.0000E+00  0.0000E+00  0.0000E+00  0.0000E+00  0.0000E+00  0.0000E+00  0.0000E+00  0.0000E+00  0.0000E+00  0.0000E+00  0.0000E+00  0.0000E+00  0.0000E+00  0.0000E+00
     -1.474  0.0000E+00  0.0000E+00  0.0000E+00  0.0000E+00  0.0000E+00  0.0000E+00  0.0000E+00  0.0000E+00  0.0000E+00  0.0000E+00  0.0000E+00  0.0000E+00  0.0000E+00  0.0000E+00  0.0000E+00  0.0000E+00  0.0000E+00  0.0000E+00
     -1.290  0.0000E+00  0.0000E+00  0.0000E+00  0.0000E+00  0.0000E+00  0.0000E+00  0.0000E+00  0.0000E+00  0.0000E+00  0.0000E+00  0.0000E+00  0.0000E+00  0.0000E+00  0.0000E+00  0.0000E+00  0.0000E+00  0.0000E+00  0.0000E+00
     -1.106  0.0000E+00  0.0000E+00  0.0000E+00  0.0000E+00  0.0000E+00  0.0000E+00  0.0000E+00  0.0000E+00  0.0000E+00  0.0000E+00  0.0000E+00  0.0000E+00  0.0000E+00  0.0000E+00  0.0000E+00  0.0000E+00  0.0000E+00  0.0000E+00
     -0.922  0.0000E+00  0.0000E+00  0.0000E+00  0.0000E+00  0.0000E+00  0.0000E+00  0.0000E+00  0.0000E+00  0.0000E+00  0.0000E+00  0.0000E+00  0.0000E+00  0.0000E+00  0.0000E+00  0.0000E+00  0.0000E+00  0.0000E+00  0.0000E+00
     -0.738  0.0000E+00  0.0000E+00  0.0000E+00  0.0000E+00  0.0000E+00  0.0000E+00  0.0000E+00  0.0000E+00  0.0000E+00  0.0000E+00  0.0000E+00  0.0000E+00  0.0000E+00  0.0000E+00  0.0000E+00  0.0000E+00  0.0000E+00  0.0000E+00
     -0.554  0.0000E+00  0.0000E+00  0.0000E+00  0.0000E+00  0.0000E+00  0.0000E+00  0.0000E+00  0.0000E+00  0.0000E+00  0.0000E+00  0.0000E+00  0.0000E+00  0.0000E+00  0.0000E+00  0.0000E+00  0.0000E+00  0.0000E+00  0.0000E+00
     -0.370  0.0000E+00  0.0000E+00  0.0000E+00  0.0000E+00  0.0000E+00  0.0000E+00  0.0000E+00  0.0000E+00  0.0000E+00  0.0000E+00  0.0000E+00  0.0000E+00  0.0000E+00  0.0000E+00  0.0000E+00  0.0000E+00  0.0000E+00  0.0000E+00
     -0.185  0.0000E+00  0.0000E+00  0.0000E+00  0.0000E+00  0.0000E+00  0.0000E+00  0.0000E+00  0.0000E+00  0.0000E+00  0.0000E+00  0.0000E+00  0.0000E+00  0.0000E+00  0.0000E+00  0.0000E+00  0.0000E+00  0.0000E+00  0.0000E+00
     -0.001  0.0000E+00  0.0000E+00  0.0000E+00  0.0000E+00  0.0000E+00  0.0000E+00  0.0000E+00  0.0000E+00  0.0000E+00  0.0000E+00  0.0000E+00  0.0000E+00  0.0000E+00  0.0000E+00  0.0000E+00  0.0000E+00  0.0000E+00  0.0000E+00
      0.183  0.0000E+00  0.0000E+00  0.0000E+00  0.0000E+00  0.0000E+00  0.0000E+00  0.0000E+00  0.0000E+00  0.0000E+00  0.0000E+00  0.0000E+00  0.0000E+00  0.0000E+00  0.0000E+00  0.0000E+00  0.0000E+00  0.0000E+00  0.0000E+00
      0.367  0.0000E+00  0.0000E+00  0.0000E+00  0.0000E+00  0.0000E+00  0.0000E+00  0.0000E+00  0.0000E+00  0.0000E+00  0.0000E+00  0.0000E+00  0.0000E+00  0.0000E+00  0.0000E+00  0.0000E+00  0.0000E+00  0.0000E+00  0.0000E+00
      0.551  0.1936E-06  0.7097E-06  0.1527E-24  0.1378E-21  0.8494E-19  0.1183E-17  0.1527E-24  0.1378E-21  0.2803E-21  0.4942E-19  0.1925E-31  0.3434E-27  0.1539E-11  0.8735E-11  0.1925E-31  0.3434E-27  0.2803E-21  0.4942E-19
      0.735  0.1470E-02  0.1531E-02  0.5046E-10  0.2540E-09  0.1762E-06  0.4540E-06  0.5046E-10  0.2540E-09  0.9645E-12  0.3405E-11  0.2747E-22  0.2253E-20  0.1351E-07  0.2120E-07  0.2747E-22  0.2253E-20  0.9645E-12  0.3405E-11
      0.919  0.8826E-02  0.9782E-02  0.6241E-04  0.7428E-04  0.4333E-04  0.4345E-04  0.6241E-04  0.7428E-04  0.1193E-05  0.9956E-06  0.5851E-09  0.1379E-08  0.1727E-05  0.1501E-05  0.5851E-09  0.1379E-08  0.1193E-05  0.9956E-06
      1.104  0.1992E-01  0.1943E-01  0.2191E-03  0.2157E-03  0.2380E-03  0.2488E-03  0.2191E-03  0.2157E-03  0.4293E-05  0.2945E-05  0.8018E-05  0.5947E-05  0.7590E-06  0.4472E-06  0.8018E-05  0.5947E-05  0.4293E-05  0.2945E-05
      1.288  0.3948E-02  0.3658E-02  0.2585E-04  0.2478E-04  0.1464E-03  0.1503E-03  0.2585E-04  0.2478E-04  0.8752E-06  0.7557E-06  0.7199E-06  0.2805E-06  0.9312E-05  0.6791E-05  0.7199E-06  0.2805E-06  0.8752E-06  0.7557E-06
      1.472  0.2003E-01  0.2192E-01  0.5029E-03  0.5524E-03  0.4760E-03  0.5586E-03  0.5029E-03  0.5524E-03  0.2707E-04  0.2020E-04  0.2124E-04  0.1788E-04  0.3654E-04  0.2665E-04  0.2124E-04  0.1788E-04  0.2707E-04  0.2020E-04
      1.656  0.3316E-01  0.3087E-01  0.9728E-03  0.9390E-03  0.8339E-03  0.7546E-03  0.9728E-03  0.9390E-03  0.6813E-04  0.4452E-04  0.4824E-04  0.3037E-04  0.6400E-04  0.4093E-04  0.4824E-04  0.3037E-04  0.6813E-04  0.4452E-04
      1.840  0.1595E-01  0.1568E-01  0.7045E-03  0.7039E-03  0.2538E-03  0.2527E-03  0.7045E-03  0.7039E-03  0.6820E-04  0.4397E-04  0.4317E-04  0.2829E-04  0.2570E-04  0.1769E-04  0.4317E-04  0.2829E-04  0.6820E-04  0.4397E-04
      2.024  0.1863E-01  0.1853E-01  0.5442E-03  0.5492E-03  0.1288E-02  0.1304E-02  0.5442E-03  0.5492E-03  0.3825E-04  0.2500E-04  0.1231E-03  0.8171E-04  0.8521E-04  0.5157E-04  0.1231E-03  0.8171E-04  0.3825E-04  0.2500E-04
      2.208  0.4062E-01  0.3832E-01  0.1707E-02  0.1608E-02  0.2815E-02  0.2779E-02  0.1707E-02  0.1608E-02  0.2321E-03  0.1340E-03  0.2566E-03  0.1660E-03  0.4651E-03  0.2653E-03  0.2566E-03  0.1660E-03  0.2321E-03  0.1340E-03
      2.393  0.3696E-01  0.3839E-01  0.2815E-02  0.2941E-02  0.6465E-03  0.7579E-03  0.2815E-02  0.2941E-02  0.5102E-03  0.3312E-03  0.1920E-03  0.1184E-03  0.3285E-03  0.2288E-03  0.1920E-03  0.1184E-03  0.5102E-03  0.3312E-03
      2.577  0.1452E-01  0.9628E-02  0.7946E-03  0.5288E-03  0.1347E-02  0.9046E-03  0.7946E-03  0.5288E-03  0.1702E-03  0.5866E-04  0.2039E-03  0.8838E-04  0.2378E-03  0.8887E-04  0.2039E-03  0.8838E-04  0.1702E-03  0.5866E-04
      2.761  0.6003E-01  0.5440E-01  0.4571E-02  0.4292E-02  0.3879E-02  0.3446E-02  0.4571E-02  0.4292E-02  0.1180E-02  0.6347E-03  0.1285E-02  0.6473E-03  0.5629E-03  0.3223E-03  0.1285E-02  0.6473E-03  0.1180E-02  0.6347E-03
      2.945  0.9353E-02  0.2081E-01  0.3651E-03  0.1215E-02  0.1386E-02  0.2372E-02  0.3651E-03  0.1215E-02  0.7252E-04  0.1566E-03  0.1970E-03  0.2955E-03  0.4778E-03  0.2995E-03  0.1970E-03  0.2955E-03  0.7252E-04  0.1566E-03
      3.129  0.2856E-01  0.2415E-01  0.1786E-02  0.1297E-02  0.3677E-02  0.3828E-02  0.1786E-02  0.1297E-02  0.7029E-03  0.2602E-03  0.7433E-03  0.3650E-03  0.1998E-02  0.1036E-02  0.7433E-03  0.3650E-03  0.7029E-03  0.2602E-03
      3.313  0.5141E-01  0.2120E-01  0.5829E-02  0.2629E-02  0.3550E-02  0.1011E-02  0.5829E-02  0.2629E-02  0.2365E-02  0.5553E-03  0.1967E-02  0.3062E-03  0.1334E-02  0.3837E-03  0.1967E-02  0.3062E-03  0.2365E-02  0.5553E-03
      3.497  0.4638E-01  0.7083E-01  0.4970E-02  0.7906E-02  0.4240E-02  0.6525E-02  0.4970E-02  0.7906E-02  0.2730E-02  0.1967E-02  0.1652E-02  0.1521E-02  0.2892E-02  0.1716E-02  0.1652E-02  0.1521E-02  0.2730E-02  0.1967E-02
      3.682  0.5563E-01  0.3626E-01  0.6133E-02  0.3897E-02  0.6145E-02  0.4740E-02  0.6133E-02  0.3897E-02  0.4266E-02  0.1005E-02  0.4960E-02  0.1312E-02  0.3372E-02  0.1068E-02  0.4960E-02  0.1312E-02  0.4266E-02  0.1005E-02
      3.866  0.2650E-01  0.3810E-01  0.2700E-02  0.5215E-02  0.3072E-02  0.3294E-02  0.2700E-02  0.5215E-02  0.3470E-02  0.1912E-02  0.1109E-02  0.1810E-02  0.7736E-02  0.9418E-03  0.1109E-02  0.1810E-02  0.3470E-02  0.1912E-02
      4.050  0.5261E-01  0.2233E-01  0.5882E-02  0.2939E-02  0.9061E-02  0.2313E-02  0.5882E-02  0.2939E-02  0.6177E-02  0.1657E-02  0.1141E-01  0.3665E-03  0.2511E-02  0.2579E-02  0.1141E-01  0.3665E-03  0.6177E-02  0.1657E-02
      4.234  0.5503E-01  0.4338E-01  0.7598E-02  0.4353E-02  0.7335E-02  0.9943E-02  0.7598E-02  0.4353E-02  0.1166E-01  0.1532E-02  0.9378E-02  0.3637E-02  0.1503E-01  0.2905E-02  0.9378E-02  0.3637E-02  0.1166E-01  0.1532E-02
      4.418  0.9708E-01  0.4536E-01  0.1339E-01  0.6710E-02  0.6538E-02  0.7047E-02  0.1339E-01  0.6710E-02  0.4831E-01  0.3428E-02  0.4155E-01  0.4350E-02  0.4829E-01  0.2829E-02  0.4155E-01  0.4350E-02  0.4831E-01  0.3428E-02
      4.602  0.7925E-01  0.4644E-01  0.8221E-02  0.7951E-02  0.1076E-01  0.6912E-02  0.8221E-02  0.7951E-02  0.5849E-01  0.4078E-02  0.8029E-01  0.2482E-02  0.4910E-01  0.5956E-02  0.8029E-01  0.2482E-02  0.5849E-01  0.4078E-02
      4.786  0.7906E-01  0.5498E-01  0.1024E-01  0.1151E-01  0.1380E-01  0.3518E-02  0.1024E-01  0.1151E-01  0.8539E-01  0.1002E-01  0.8643E-01  0.4973E-02  0.9952E-01  0.6299E-02  0.8643E-01  0.4973E-02  0.8539E-01  0.1002E-01
      4.971  0.5350E-01  0.5139E-01  0.1010E-01  0.7580E-02  0.1139E-01  0.1109E-01  0.1010E-01  0.7580E-02  0.1283E+00  0.7241E-02  0.8163E-01  0.1041E-01  0.7008E-01  0.1145E-01  0.8163E-01  0.1041E-01  0.1283E+00  0.7241E-02
      5.155  0.6006E-01  0.6190E-01  0.1677E-01  0.1045E-01  0.1684E-01  0.1189E-01  0.1677E-01  0.1045E-01  0.1567E+00  0.1602E-01  0.2035E+00  0.1700E-01  0.2132E+00  0.8124E-02  0.2035E+00  0.1700E-01  0.1567E+00  0.1602E-01
      5.339  0.2659E-01  0.3427E-01  0.1352E-01  0.3776E-02  0.1797E-01  0.8951E-02  0.1352E-01  0.3776E-02  0.1067E+00  0.8042E-02  0.1808E+00  0.1120E-01  0.1082E+00  0.2029E-01  0.1808E+00  0.1120E-01  0.1067E+00  0.8042E-02
      5.523  0.2155E-01  0.7827E-01  0.1893E-01  0.1341E-01  0.1422E-01  0.7411E-02  0.1893E-01  0.1341E-01  0.1394E+00  0.4749E-01  0.1458E+00  0.3959E-01  0.2172E+00  0.4464E-01  0.1458E+00  0.3959E-01  0.1394E+00  0.4749E-01
      5.707  0.1013E-01  0.8639E-01  0.1627E-01  0.1763E-01  0.1395E-01  0.1588E-01  0.1627E-01  0.1763E-01  0.1824E+00  0.4564E-01  0.1280E+00  0.5296E-01  0.2255E+00  0.3492E-01  0.1280E+00  0.5296E-01  0.1824E+00  0.4564E-01
      5.891  0.1050E-01  0.5502E-01  0.2322E-01  0.9463E-02  0.1408E-01  0.1345E-01  0.2322E-01  0.9463E-02  0.2547E+00  0.3926E-01  0.1404E+00  0.5332E-01  0.2240E+00  0.5612E-01  0.1404E+00  0.5332E-01  0.2547E+00  0.3926E-01
      6.075  0.1286E-01  0.3575E-01  0.2374E-01  0.8055E-02  0.1985E-01  0.1086E-01  0.2374E-01  0.8055E-02  0.2635E+00  0.5547E-01  0.1461E+00  0.5277E-01  0.2150E+00  0.2337E-01  0.1461E+00  0.5277E-01  0.2635E+00  0.5547E-01
      6.260  0.4655E-02  0.5453E-01  0.8602E-02  0.1727E-01  0.8803E-02  0.1842E-01  0.8602E-02  0.1727E-01  0.1333E+00  0.9410E-01  0.6103E-01  0.7895E-01  0.1265E+00  0.1071E+00  0.6103E-01  0.7895E-01  0.1333E+00  0.9410E-01
      6.444  0.9054E-02  0.2445E-01  0.1643E-01  0.1174E-01  0.1916E-01  0.1591E-01  0.1643E-01  0.1174E-01  0.1859E+00  0.9124E-01  0.3166E+00  0.1295E+00  0.3837E+00  0.7457E-01  0.3166E+00  0.1295E+00  0.1859E+00  0.9124E-01
      6.628  0.1269E-01  0.1567E-01  0.1756E-01  0.1681E-01  0.2077E-01  0.2067E-01  0.1756E-01  0.1681E-01  0.2604E+00  0.7376E-01  0.3128E+00  0.1830E+00  0.2822E+00  0.9044E-01  0.3128E+00  0.1830E+00  0.2604E+00  0.7376E-01
      6.812  0.1287E-01  0.7071E-02  0.1379E-01  0.1978E-01  0.2326E-01  0.1438E-01  0.1379E-01  0.1978E-01  0.3257E+00  0.1242E+00  0.3537E+00  0.7882E-01  0.2318E+00  0.1419E+00  0.3537E+00  0.7882E-01  0.3257E+00  0.1242E+00
      6.996  0.1242E-01  0.8869E-02  0.1667E-01  0.2470E-01  0.2358E-01  0.1321E-01  0.1667E-01  0.2470E-01  0.3256E+00  0.1312E+00  0.3511E+00  0.8465E-01  0.2821E+00  0.1865E+00  0.3511E+00  0.8465E-01  0.3256E+00  0.1312E+00
      7.180  0.8204E-02  0.9308E-02  0.1824E-01  0.3518E-01  0.1668E-01  0.2172E-01  0.1824E-01  0.3518E-01  0.2733E+00  0.1771E+00  0.2715E+00  0.1057E+00  0.2141E+00  0.2326E+00  0.2715E+00  0.1057E+00  0.2733E+00  0.1771E+00
      7.364  0.7967E-02  0.1009E-01  0.1241E-01  0.4065E-01  0.1091E-01  0.2421E-01  0.1241E-01  0.4065E-01  0.1859E+00  0.2556E+00  0.1943E+00  0.1108E+00  0.1199E+00  0.2176E+00  0.1943E+00  0.1108E+00  0.1859E+00  0.2556E+00