   2   2   1   0
  0.1120975E+02  0.2519857E-09  0.2519857E-09  0.4077026E-09  0.5000000E-15
  1.000000000000000E-004
  CAR 
 Co-hcc                                  
     35.76184811     -0.57525338  301      9.76041235      1.00000000
     -0.575  0.0000E+00  0.0000E+00  0.0000E+00  0.0000E+00
     -0.454  0.0000E+00  0.0000E+00  0.0000E+00  0.0000E+00
     -0.333  0.0000E+00  0.0000E+00  0.0000E+00  0.0000E+00
     -0.212  0.0000E+00  0.0000E+00  0.0000E+00  0.0000E+00
     -0.091  0.0000E+00  0.0000E+00  0.0000E+00  0.0000E+00
      0.030  0.0000E+00  0.0000E+00  0.0000E+00  0.0000E+00
      0.151  0.0000E+00  0.0000E+00  0.0000E+00  0.0000E+00
      0.273  0.0000E+00  0.0000E+00  0.0000E+00  0.0000E+00
      0.394  0.0000E+00  0.0000E+00  0.0000E+00  0.0000E+00
      0.515  0.0000E+00  0.0000E+00  0.0000E+00  0.0000E+00
      0.636  0.0000E+00  0.0000E+00  0.0000E+00  0.0000E+00
      0.757  0.0000E+00  0.0000E+00  0.0000E+00  0.0000E+00
      0.878  0.1068E-11  0.6547E-12  0.1294E-12  0.7930E-13
      0.999  0.1509E-05  0.1215E-05  0.1828E-06  0.1472E-06
      1.120  0.9091E-04  0.8946E-04  0.1119E-04  0.1098E-04
      1.242  0.1403E-03  0.1342E-03  0.2819E-04  0.2724E-04
      1.363  0.1158E-03  0.1150E-03  0.4222E-04  0.4116E-04
      1.484  0.5737E-03  0.5727E-03  0.1117E-03  0.1105E-03
      1.605  0.1072E-02  0.1034E-02  0.2415E-03  0.2357E-03
      1.726  0.3591E-03  0.3988E-03  0.2850E-03  0.2840E-03
      1.847  0.2065E-04  0.2856E-04  0.2875E-03  0.2875E-03
      1.968  0.1644E-03  0.9872E-04  0.3074E-03  0.2995E-03
      2.089  0.1481E-02  0.1456E-02  0.4868E-03  0.4758E-03
      2.211  0.7687E-03  0.6724E-03  0.5799E-03  0.5572E-03
      2.332  0.7348E-03  0.8823E-03  0.6689E-03  0.6641E-03
      2.453  0.7846E-03  0.7426E-03  0.7639E-03  0.7541E-03
      2.574  0.1218E-02  0.1079E-02  0.9115E-03  0.8847E-03
      2.695  0.1736E-02  0.1518E-02  0.1122E-02  0.1069E-02
      2.816  0.7515E-03  0.1180E-02  0.1213E-02  0.1211E-02
      2.937  0.8884E-03  0.3729E-03  0.1320E-02  0.1257E-02
      3.058  0.3479E-03  0.8716E-03  0.1362E-02  0.1362E-02
      3.180  0.1456E-04  0.2491E-05  0.1364E-02  0.1363E-02
      3.301  0.2137E-02  0.6397E-03  0.1623E-02  0.1440E-02
      3.422  0.2726E-02  0.2677E-02  0.1953E-02  0.1764E-02
      3.543  0.1437E-02  0.1871E-02  0.2127E-02  0.1991E-02
      3.664  0.1565E-02  0.2000E-02  0.2317E-02  0.2233E-02
      3.785  0.2868E-02  0.9813E-03  0.2664E-02  0.2352E-02
      3.906  0.1203E-02  0.2537E-02  0.2810E-02  0.2659E-02
      4.027  0.1967E-03  0.1197E-02  0.2834E-02  0.2804E-02
      4.149  0.2520E-02  0.1527E-03  0.3139E-02  0.2823E-02
      4.270  0.2753E-02  0.1430E-02  0.3473E-02  0.2996E-02
      4.391  0.1912E-02  0.2368E-02  0.3704E-02  0.3283E-02
      4.512  0.2027E-02  0.2469E-02  0.3950E-02  0.3582E-02
      4.633  0.4681E-02  0.6839E-03  0.4517E-02  0.3664E-02
      4.754  0.5263E-02  0.1849E-02  0.5154E-02  0.3888E-02
      4.875  0.1126E-01  0.2911E-02  0.6518E-02  0.4241E-02
      4.996  0.1077E-01  0.2709E-02  0.7824E-02  0.4569E-02
      5.118  0.8667E-02  0.2956E-02  0.8873E-02  0.4927E-02
      5.239  0.6863E-02  0.4561E-02  0.9704E-02  0.5480E-02
      5.360  0.1989E-01  0.1573E-02  0.1211E-01  0.5670E-02
      5.481  0.2077E-01  0.5965E-02  0.1463E-01  0.6393E-02
      5.602  0.1293E-01  0.3099E-02  0.1619E-01  0.6768E-02
      5.723  0.1740E-01  0.1324E-02  0.1830E-01  0.6928E-02
      5.844  0.2317E-01  0.7764E-03  0.2111E-01  0.7022E-02
      5.965  0.1337E-01  0.1199E-01  0.2273E-01  0.8475E-02
      6.087  0.1682E-01  0.1340E-01  0.2477E-01  0.1010E-01
      6.208  0.2019E-01  0.7154E-02  0.2721E-01  0.1096E-01
      6.329  0.2121E-01  0.6078E-02  0.2978E-01  0.1170E-01
      6.450  0.2342E-01  0.7877E-02  0.3262E-01  0.1265E-01
      6.571  0.2160E-01  0.1246E-01  0.3523E-01  0.1416E-01
      6.692  0.1741E-01  0.1321E-01  0.3734E-01  0.1576E-01
      6.813  0.1236E-01  0.5223E-02  0.3884E-01  0.1640E-01
      6.934  0.1793E-01  0.1767E-01  0.4101E-01  0.1854E-01
      7.056  0.3208E-01  0.1873E-01  0.4490E-01  0.2080E-01
      7.177  0.2942E-01  0.1010E-01  0.4846E-01  0.2203E-01
      7.298  0.2992E-01  0.1353E-01  0.5208E-01  0.2367E-01
      7.419  0.3105E-01  0.1179E-01  0.5584E-01  0.2510E-01
      7.540  0.3293E-01  0.2118E-01  0.5983E-01  0.2766E-01
      7.661  0.3359E-01  0.1515E-01  0.6390E-01  0.2950E-01
      7.782  0.2908E-01  0.2174E-01  0.6742E-01  0.3213E-01
      7.903  0.2381E-01  0.2125E-01  0.7031E-01  0.3470E-01
      8.025  0.2036E-01  0.1647E-01  0.7277E-01  0.3670E-01
      8.146  0.1883E-01  0.8715E-02  0.7505E-01  0.3775E-01
      8.267  0.1652E-01  0.8301E-02  0.7706E-01  0.3876E-01
      8.388  0.1672E-01  0.1184E-01  0.7908E-01  0.4019E-01
      8.509  0.2947E-01  0.1633E-01  0.8265E-01  0.4217E-01
      8.630  0.1817E-01  0.2450E-01  0.8485E-01  0.4514E-01
      8.751  0.2224E-01  0.2882E-01  0.8754E-01  0.4863E-01
      8.872  0.3550E-01  0.2696E-01  0.9184E-01  0.5190E-01
      8.994  0.5007E-01  0.2153E-01  0.9791E-01  0.5450E-01
      9.115  0.4053E-01  0.3123E-01  0.1028E+00  0.5829E-01
      9.236  0.9572E-02  0.2775E-01  0.1040E+00  0.6165E-01
      9.357  0.3955E-02  0.2948E-01  0.1045E+00  0.6522E-01
      9.478  0.9238E-02  0.2288E-01  0.1056E+00  0.6799E-01
      9.599  0.7495E-02  0.1771E-01  0.1065E+00  0.7013E-01
      9.720  0.2524E-02  0.1733E-01  0.1068E+00  0.7223E-01
      9.841  0.1333E-02  0.1770E-01  0.1069E+00  0.7438E-01
      9.963  0.9925E-06  0.1075E-01  0.1069E+00  0.7568E-01
     10.084  0.6276E-09  0.1727E-01  0.1070E+00  0.7777E-01
     10.205  0.1505E-03  0.9705E-02  0.1070E+00  0.7895E-01
     10.326  0.5120E-02  0.2511E-01  0.1076E+00  0.8199E-01
     10.447  0.3419E-02  0.1598E-01  0.1080E+00  0.8392E-01
     10.568  0.1640E-02  0.1560E-01  0.1082E+00  0.8581E-01
     10.689  0.2241E-02  0.2172E-01  0.1085E+00  0.8844E-01
     10.810  0.9805E-02  0.3148E-01  0.1097E+00  0.9225E-01
     10.931  0.2263E-02  0.4280E-01  0.1099E+00  0.9744E-01
     11.053  0.4229E-02  0.4251E-01  0.1104E+00  0.1026E+00
     11.174  0.1163E-02  0.2279E-01  0.1106E+00  0.1053E+00
     11.295  0.3212E-03  0.1037E-01  0.1106E+00  0.1066E+00
     11.416  0.4280E-02  0.3181E-02  0.1111E+00  0.1070E+00
     11.537  0.2564E-02  0.7971E-03  0.1115E+00  0.1071E+00
     11.658  0.4476E-02  0.4732E-02  0.1120E+00  0.1077E+00
     11.779  0.2596E-02  0.2703E-02  0.1123E+00  0.1080E+00
     11.900  0.1083E-04  0.2431E-02  0.1123E+00  0.1083E+00
     12.022  0.2315E-02  0.5524E-02  0.1126E+00  0.1090E+00
     12.143  0.3244E-02  0.6578E-02  0.1130E+00  0.1097E+00
     12.264  0.9024E-05  0.4480E-02  0.1130E+00  0.1103E+00
     12.385  0.5384E-03  0.2647E-02  0.1131E+00  0.1106E+00
     12.506  0.2348E-02  0.2823E-02  0.1133E+00  0.1110E+00
     12.627  0.2654E-02  0.7280E-02  0.1137E+00  0.1118E+00
     12.748  0.1043E-02  0.1516E-02  0.1138E+00  0.1120E+00
     12.869  0.2245E-02  0.2973E-02  0.1141E+00  0.1124E+00
     12.991  0.4900E-02  0.2439E-03  0.1147E+00  0.1124E+00
     13.112  0.3893E-02  0.3744E-02  0.1151E+00  0.1129E+00
     13.233  0.4679E-02  0.1536E-02  0.1157E+00  0.1130E+00
     13.354  0.1736E-02  0.2641E-02  0.1159E+00  0.1134E+00
     13.475  0.2017E-02  0.1783E-02  0.1161E+00  0.1136E+00
     13.596  0.3792E-03  0.8148E-03  0.1162E+00  0.1137E+00
     13.717  0.5116E-02  0.1109E-02  0.1168E+00  0.1138E+00
     13.838  0.2861E-02  0.4191E-02  0.1172E+00  0.1143E+00
     13.960  0.1615E-02  0.7364E-02  0.1174E+00  0.1152E+00
     14.081  0.8165E-03  0.1996E-02  0.1174E+00  0.1155E+00
     14.202  0.1799E-05  0.5212E-02  0.1175E+00  0.1161E+00
     14.323  0.7538E-03  0.7137E-03  0.1175E+00  0.1162E+00
     14.444  0.3748E-02  0.8542E-03  0.1180E+00  0.1163E+00
     14.565  0.1680E-02  0.1660E-02  0.1182E+00  0.1165E+00
     14.686  0.2020E-02  0.5269E-02  0.1184E+00  0.1171E+00
     14.807  0.1703E-02  0.1583E-02  0.1186E+00  0.1173E+00
     14.929  0.4520E-05  0.1124E-02  0.1187E+00  0.1174E+00
     15.050  0.8870E-03  0.4051E-03  0.1188E+00  0.1175E+00
     15.171  0.1331E-02  0.4943E-02  0.1189E+00  0.1181E+00
     15.292  0.2562E-03  0.8775E-03  0.1189E+00  0.1182E+00
     15.413  0.6697E-06  0.8593E-03  0.1190E+00  0.1183E+00
     15.534  0.6930E-03  0.2841E-02  0.1190E+00  0.1186E+00
     15.655  0.1672E-02  0.3491E-03  0.1192E+00  0.1187E+00
     15.776  0.3870E-02  0.9093E-03  0.1197E+00  0.1188E+00
     15.898  0.1537E-02  0.9905E-03  0.1199E+00  0.1189E+00
     16.019  0.4548E-03  0.2437E-03  0.1199E+00  0.1190E+00
     16.140  0.1650E-02  0.5303E-03  0.1201E+00  0.1190E+00
     16.261  0.1299E-02  0.1027E-02  0.1203E+00  0.1191E+00
     16.382  0.1292E-02  0.3846E-02  0.1205E+00  0.1196E+00
     16.503  0.1335E-02  0.9139E-03  0.1206E+00  0.1197E+00
     16.624  0.2358E-02  0.1094E-02  0.1209E+00  0.1198E+00
     16.745  0.1053E-02  0.2125E-03  0.1210E+00  0.1199E+00
     16.867  0.6740E-03  0.1102E-02  0.1211E+00  0.1200E+00
     16.988  0.4625E-02  0.1790E-02  0.1217E+00  0.1202E+00
     17.109  0.4128E-02  0.1966E-02  0.1222E+00  0.1205E+00
     17.230  0.3364E-02  0.1746E-02  0.1226E+00  0.1207E+00
     17.351  0.4150E-02  0.2569E-02  0.1231E+00  0.1210E+00
     17.472  0.3679E-02  0.2502E-04  0.1235E+00  0.1210E+00
     17.593  0.8784E-03  0.1834E-03  0.1236E+00  0.1210E+00
     17.714  0.3489E-02  0.1878E-02  0.1241E+00  0.1212E+00
     17.836  0.5080E-02  0.2764E-02  0.1247E+00  0.1216E+00
     17.957  0.3383E-02  0.6297E-02  0.1251E+00  0.1223E+00
     18.078  0.4278E-02  0.3279E-02  0.1256E+00  0.1227E+00
     18.199  0.5592E-02  0.4938E-02  0.1263E+00  0.1233E+00
     18.320  0.2769E-02  0.2695E-02  0.1266E+00  0.1237E+00
     18.441  0.1063E-02  0.4633E-02  0.1267E+00  0.1242E+00
     18.562  0.1774E-02  0.3914E-02  0.1270E+00  0.1247E+00
     18.683  0.2998E-02  0.5467E-02  0.1273E+00  0.1254E+00
     18.805  0.4908E-02  0.4463E-02  0.1279E+00  0.1259E+00
     18.926  0.1754E-02  0.3829E-02  0.1281E+00  0.1264E+00
     19.047  0.4640E-02  0.2391E-02  0.1287E+00  0.1266E+00
     19.168  0.4646E-02  0.1821E-02  0.1293E+00  0.1269E+00
     19.289  0.1182E-02  0.5619E-02  0.1294E+00  0.1275E+00
     19.410  0.1893E-02  0.2240E-02  0.1296E+00  0.1278E+00
     19.531  0.5136E-02  0.4400E-02  0.1303E+00  0.1284E+00
     19.652  0.2924E-02  0.2325E-02  0.1306E+00  0.1286E+00
     19.774  0.6673E-02  0.5027E-02  0.1314E+00  0.1292E+00
     19.895  0.1319E-02  0.1291E-02  0.1316E+00  0.1294E+00
     20.016  0.6346E-02  0.1280E-02  0.1323E+00  0.1296E+00
     20.137  0.7253E-02  0.7576E-02  0.1332E+00  0.1305E+00
     20.258  0.2345E-02  0.5295E-02  0.1335E+00  0.1311E+00
     20.379  0.6475E-02  0.4465E-02  0.1343E+00  0.1317E+00
     20.500  0.1659E-02  0.4845E-02  0.1345E+00  0.1322E+00
     20.621  0.1456E-02  0.6155E-02  0.1347E+00  0.1330E+00
     20.743  0.1843E-02  0.2568E-02  0.1349E+00  0.1333E+00
     20.864  0.1355E-02  0.4452E-02  0.1351E+00  0.1338E+00
     20.985  0.4653E-02  0.5388E-02  0.1356E+00  0.1345E+00
     21.106  0.5791E-02  0.1311E-02  0.1363E+00  0.1346E+00
     21.227  0.2180E-02  0.2258E-02  0.1366E+00  0.1349E+00
     21.348  0.6222E-02  0.2768E-02  0.1373E+00  0.1353E+00
     21.469  0.2296E-02  0.2388E-02  0.1376E+00  0.1355E+00
     21.590  0.1132E-02  0.5797E-02  0.1378E+00  0.1362E+00
     21.712  0.2230E-02  0.3171E-02  0.1380E+00  0.1366E+00
     21.833  0.1885E-02  0.6593E-02  0.1382E+00  0.1374E+00
     21.954  0.3147E-02  0.1480E-02  0.1386E+00  0.1376E+00
     22.075  0.2928E-02  0.1100E-02  0.1390E+00  0.1377E+00
     22.196  0.1832E-02  0.2766E-02  0.1392E+00  0.1381E+00
     22.317  0.4056E-02  0.1966E-02  0.1397E+00  0.1383E+00
     22.438  0.5227E-02  0.2242E-02  0.1403E+00  0.1386E+00
     22.559  0.4266E-03  0.3878E-02  0.1404E+00  0.1391E+00
     22.680  0.1329E-02  0.2485E-02  0.1405E+00  0.1394E+00
     22.802  0.4881E-02  0.5406E-02  0.1411E+00  0.1400E+00
     22.923  0.2886E-02  0.2732E-02  0.1415E+00  0.1403E+00
     23.044  0.1522E-02  0.6822E-03  0.1417E+00  0.1404E+00
     23.165  0.6337E-02  0.1479E-02  0.1424E+00  0.1406E+00
     23.286  0.5673E-02  0.4836E-02  0.1431E+00  0.1412E+00
     23.407  0.4078E-02  0.3458E-02  0.1436E+00  0.1416E+00
     23.528  0.3490E-02  0.4041E-02  0.1440E+00  0.1421E+00
     23.649  0.1785E-02  0.5335E-02  0.1443E+00  0.1427E+00
     23.771  0.5076E-03  0.5362E-02  0.1443E+00  0.1434E+00
     23.892  0.1670E-02  0.2818E-02  0.1445E+00  0.1437E+00
     24.013  0.6963E-02  0.3488E-02  0.1454E+00  0.1442E+00
     24.134  0.3665E-02  0.1171E-02  0.1458E+00  0.1443E+00
     24.255  0.2814E-02  0.4467E-03  0.1461E+00  0.1444E+00
     24.376  0.4358E-02  0.5831E-02  0.1467E+00  0.1451E+00
     24.497  0.2250E-02  0.4298E-02  0.1469E+00  0.1456E+00
     24.618  0.2073E-02  0.3816E-02  0.1472E+00  0.1460E+00
     24.740  0.2901E-02  0.3748E-02  0.1476E+00  0.1465E+00
     24.861  0.5287E-02  0.3005E-02  0.1482E+00  0.1469E+00
     24.982  0.5821E-02  0.2732E-02  0.1489E+00  0.1472E+00
     25.103  0.2935E-02  0.3128E-02  0.1493E+00  0.1476E+00
     25.224  0.3523E-02  0.4721E-02  0.1497E+00  0.1481E+00
     25.345  0.3678E-02  0.7383E-02  0.1501E+00  0.1490E+00
     25.466  0.5975E-02  0.2231E-02  0.1508E+00  0.1493E+00
     25.587  0.1228E-02  0.3045E-02  0.1510E+00  0.1497E+00
     25.709  0.8939E-03  0.4482E-02  0.1511E+00  0.1502E+00
     25.830  0.4136E-02  0.5678E-02  0.1516E+00  0.1509E+00
     25.951  0.1022E-03  0.1268E-02  0.1516E+00  0.1511E+00
     26.072  0.1493E-02  0.1901E-02  0.1518E+00  0.1513E+00
     26.193  0.2152E-02  0.2617E-02  0.1521E+00  0.1516E+00
     26.314  0.2564E-02  0.7531E-03  0.1524E+00  0.1517E+00
     26.435  0.5202E-02  0.1393E-02  0.1530E+00  0.1519E+00
     26.556  0.3783E-02  0.2163E-02  0.1535E+00  0.1521E+00
     26.678  0.2728E-03  0.3418E-02  0.1535E+00  0.1525E+00
     26.799  0.2054E-02  0.6565E-02  0.1537E+00  0.1533E+00
     26.920  0.2755E-02  0.1210E-02  0.1541E+00  0.1535E+00
     27.041  0.3084E-02  0.1215E-02  0.1544E+00  0.1536E+00
     27.162  0.2294E-02  0.3564E-02  0.1547E+00  0.1541E+00
     27.283  0.1356E-02  0.1156E-02  0.1549E+00  0.1542E+00
     27.404  0.9443E-03  0.2764E-02  0.1550E+00  0.1545E+00
     27.525  0.1754E-02  0.2682E-02  0.1552E+00  0.1549E+00
     27.647  0.1442E-02  0.1290E-02  0.1554E+00  0.1550E+00
     27.768  0.1742E-02  0.1056E-02  0.1556E+00  0.1552E+00
     27.889  0.8191E-04  0.1747E-02  0.1556E+00  0.1554E+00
     28.010  0.4265E-04  0.1698E-02  0.1556E+00  0.1556E+00
     28.131  0.4704E-02  0.6059E-03  0.1562E+00  0.1556E+00
     28.252  0.2063E-02  0.6416E-03  0.1564E+00  0.1557E+00
     28.373  0.5504E-04  0.2977E-02  0.1564E+00  0.1561E+00
     28.494  0.2600E-02  0.2884E-02  0.1568E+00  0.1564E+00
     28.616  0.2037E-02  0.2861E-03  0.1570E+00  0.1565E+00
     28.737  0.2120E-02  0.2621E-02  0.1573E+00  0.1568E+00
     28.858  0.9218E-03  0.1704E-02  0.1574E+00  0.1570E+00
     28.979  0.9329E-03  0.1890E-02  0.1575E+00  0.1572E+00
     29.100  0.1528E-04  0.2123E-02  0.1575E+00  0.1575E+00
     29.221  0.1543E-02  0.1452E-03  0.1577E+00  0.1575E+00
     29.342  0.9215E-03  0.1113E-02  0.1578E+00  0.1576E+00
     29.463  0.1412E-05  0.1078E-03  0.1578E+00  0.1576E+00
     29.585  0.6418E-03  0.1040E-02  0.1579E+00  0.1578E+00
     29.706  0.1245E-02  0.1017E-02  0.1580E+00  0.1579E+00
     29.827  0.1175E-02  0.1083E-02  0.1582E+00  0.1580E+00
     29.948  0.6519E-03  0.8503E-03  0.1582E+00  0.1581E+00
     30.069  0.4838E-06  0.9494E-03  0.1582E+00  0.1582E+00
     30.190  0.1916E-09  0.4465E-05  0.1582E+00  0.1582E+00
     30.311  0.5665E-04  0.3001E-04  0.1582E+00  0.1582E+00
     30.432  0.1287E-02  0.1143E-02  0.1584E+00  0.1584E+00
     30.554  0.6433E-03  0.2751E-03  0.1585E+00  0.1584E+00
     30.675  0.1043E-02  0.4957E-03  0.1586E+00  0.1585E+00
     30.796  0.1502E-02  0.1651E-02  0.1588E+00  0.1587E+00
     30.917  0.8458E-05  0.9457E-03  0.1588E+00  0.1588E+00
     31.038  0.4778E-05  0.1243E-04  0.1588E+00  0.1588E+00
     31.159  0.1042E-02  0.1201E-02  0.1589E+00  0.1589E+00
     31.280  0.8291E-03  0.3305E-03  0.1590E+00  0.1590E+00
     31.401  0.1126E-02  0.4039E-05  0.1592E+00  0.1590E+00
     31.523  0.3792E-03  0.2083E-03  0.1592E+00  0.1590E+00
     31.644  0.1464E-02  0.1806E-02  0.1594E+00  0.1592E+00
     31.765  0.1251E-02  0.1985E-02  0.1595E+00  0.1595E+00
     31.886  0.7668E-03  0.1311E-02  0.1596E+00  0.1596E+00
     32.007  0.5521E-04  0.2563E-03  0.1596E+00  0.1596E+00
     32.128  0.9119E-03  0.7892E-03  0.1597E+00  0.1597E+00
     32.249  0.5023E-03  0.4553E-03  0.1598E+00  0.1598E+00
     32.370  0.2740E-04  0.1044E-06  0.1598E+00  0.1598E+00
     32.492  0.5805E-09  0.2960E-04  0.1598E+00  0.1598E+00
     32.613  0.5622E-10  0.1749E-03  0.1598E+00  0.1598E+00
     32.734  0.1168E-04  0.1882E-05  0.1598E+00  0.1598E+00
     32.855  0.1880E-03  0.7405E-12  0.1598E+00  0.1598E+00
     32.976  0.6758E-05  0.4571E-10  0.1598E+00  0.1598E+00
     33.097  0.2390E-08  0.2084E-04  0.1598E+00  0.1598E+00
     33.218  0.9119E-04  0.5691E-03  0.1598E+00  0.1599E+00
     33.339  0.5226E-03  0.2204E-03  0.1599E+00  0.1599E+00
     33.460  0.2325E-04  0.2162E-04  0.1599E+00  0.1599E+00
     33.582  0.3764E-03  0.1877E-03  0.1599E+00  0.1599E+00
     33.703  0.5051E-04  0.1228E-04  0.1600E+00  0.1599E+00
     33.824  0.1838E-03  0.6752E-10  0.1600E+00  0.1600E+00
     33.945  0.1898E-03  0.3749E-05  0.1600E+00  0.1600E+00
     34.066  0.7148E-05  0.2062E-03  0.1600E+00  0.1600E+00
     34.187  0.1634E-10  0.1999E-03  0.1600E+00  0.1600E+00
     34.308  0.0000E+00  0.2926E-05  0.1600E+00  0.1600E+00
     34.429  0.0000E+00  0.1993E-11  0.1600E+00  0.1600E+00
     34.551  0.0000E+00  0.0000E+00  0.1600E+00  0.1600E+00
     34.672  0.0000E+00  0.0000E+00  0.1600E+00  0.1600E+00
     34.793  0.0000E+00  0.0000E+00  0.1600E+00  0.1600E+00
     34.914  0.0000E+00  0.0000E+00  0.1600E+00  0.1600E+00
     35.035  0.0000E+00  0.0000E+00  0.1600E+00  0.1600E+00
     35.156  0.0000E+00  0.0000E+00  0.1600E+00  0.1600E+00
     35.277  0.0000E+00  0.0000E+00  0.1600E+00  0.1600E+00
     35.398  0.0000E+00  0.0000E+00  0.1600E+00  0.1600E+00
     35.520  0.0000E+00  0.0000E+00  0.1600E+00  0.1600E+00
     35.641  0.0000E+00  0.0000E+00  0.1600E+00  0.1600E+00
     35.762  0.0000E+00  0.0000E+00  0.1600E+00  0.1600E+00
     35.76184811     -0.57525338  301      9.76041235      1.00000000
     -0.575  0.0000E+00  0.0000E+00  0.0000E+00  0.0000E+00  0.0000E+00  0.0000E+00  0.0000E+00  0.0000E+00  0.0000E+00  0.0000E+00  0.0000E+00  0.0000E+00  0.0000E+00  0.0000E+00  0.0000E+00  0.0000E+00  0.0000E+00  0.0000E+00
     -0.454  0.0000E+00  0.0000E+00  0.0000E+00  0.0000E+00  0.0000E+00  0.0000E+00  0.0000E+00  0.0000E+00  0.0000E+00  0.0000E+00  0.0000E+00  0.0000E+00  0.0000E+00  0.0000E+00  0.0000E+00  0.0000E+00  0.0000E+00  0.0000E+00
     -0.333  0.0000E+00  0.0000E+00  0.0000E+00  0.0000E+00  0.0000E+00  0.0000E+00  0.0000E+00  0.0000E+00  0.0000E+00  0.0000E+00  0.0000E+00  0.0000E+00  0.0000E+00  0.0000E+00  0.0000E+00  0.0000E+00  0.0000E+00  0.0000E+00
     -0.212  0.0000E+00  0.0000E+00  0.0000E+00  0.0000E+00  0.0000E+00  0.0000E+00  0.0000E+00  0.0000E+00  0.0000E+00  0.0000E+00  0.0000E+00  0.0000E+00  0.0000E+00  0.0000E+00  0.0000E+00  0.0000E+00  0.0000E+00  0.0000E+00
     -0.091  0.0000E+00  0.0000E+00  0.0000E+00  0.0000E+00  0.0000E+00  0.0000E+00  0.0000E+00  0.0000E+00  0.0000E+00  0.0000E+00  0.0000E+00  0.0000E+00  0.0000E+00  0.0000E+00  0.0000E+00  0.0000E+00  0.0000E+00  0.0000E+00
      0.030  0.0000E+00  0.0000E+00  0.0000E+00  0.0000E+00  0.0000E+00  0.0000E+00  0.0000E+00  0.0000E+00  0.0000E+00  0.0000E+00  0.0000E+00  0.0000E+00  0.0000E+00  0.0000E+00  0.0000E+00  0.0000E+00  0.0000E+00  0.0000E+00
      0.151  0.0000E+00  0.0000E+00  0.0000E+00  0.0000E+00  0.0000E+00  0.0000E+00  0.0000E+00  0.0000E+00  0.0000E+00  0.0000E+00  0.0000E+00  0.0000E+00  0.0000E+00  0.0000E+00  0.0000E+00  0.0000E+00  0.0000E+00  0.0000E+00
      0.273  0.0000E+00  0.0000E+00  0.0000E+00  0.0000E+00  0.0000E+00  0.0000E+00  0.0000E+00  0.0000E+00  0.0000E+00  0.0000E+00  0.0000E+00  0.0000E+00  0.0000E+00  0.0000E+00  0.0000E+00  0.0000E+00  0.0000E+00  0.0000E+00
      0.394  0.0000E+00  0.0000E+00  0.0000E+00  0.0000E+00  0.0000E+00  0.0000E+00  0.0000E+00  0.0000E+00  0.0000E+00  0.0000E+00  0.0000E+00  0.0000E+00  0.0000E+00  0.0000E+00  0.0000E+00  0.0000E+00  0.0000E+00  0.0000E+00
      0.515  0.0000E+00  0.0000E+00  0.0000E+00  0.0000E+00  0.0000E+00  0.0000E+00  0.0000E+00  0.0000E+00  0.0000E+00  0.0000E+00  0.0000E+00  0.0000E+00  0.0000E+00  0.0000E+00  0.0000E+00  0.0000E+00  0.0000E+00  0.0000E+00
      0.636  0.0000E+00  0.0000E+00  0.0000E+00  0.0000E+00  0.0000E+00  0.0000E+00  0.0000E+00  0.0000E+00  0.0000E+00  0.0000E+00  0.0000E+00  0.0000E+00  0.0000E+00  0.0000E+00  0.0000E+00  0.0000E+00  0.0000E+00  0.0000E+00
      0.757  0.0000E+00  0.0000E+00  0.0000E+00  0.0000E+00  0.0000E+00  0.0000E+00  0.0000E+00  0.0000E+00  0.0000E+00  0.0000E+00  0.0000E+00  0.0000E+00  0.0000E+00  0.0000E+00  0.0000E+00  0.0000E+00  0.0000E+00  0.0000E+00
      0.878  0.3730E-10  0.2282E-10  0.6116E-25  0.1457E-25  0.3901E-27  0.3185E-27  0.6116E-25  0.1457E-25  0.1336E-23  0.4337E-23  0.1011E-20  0.4181E-23  0.1673E-15  0.1440E-15  0.1011E-20  0.4181E-23  0.1336E-23  0.4337E-23
      0.999  0.5270E-04  0.4237E-04  0.8639E-19  0.2706E-19  0.3518E-14  0.1819E-14  0.8639E-19  0.2706E-19  0.1887E-17  0.8051E-17  0.1428E-14  0.7761E-17  0.2364E-09  0.2673E-09  0.1428E-14  0.7761E-17  0.1887E-17  0.8051E-17
      1.120  0.3174E-02  0.3118E-02  0.5576E-17  0.1996E-17  0.1009E-06  0.7232E-07  0.5576E-17  0.1996E-17  0.1137E-15  0.5970E-15  0.8586E-13  0.5980E-15  0.1542E-07  0.2019E-07  0.8586E-13  0.5980E-15  0.1137E-15  0.5970E-15
      1.242  0.4834E-02  0.4616E-02  0.1233E-09  0.6465E-10  0.6550E-04  0.6188E-04  0.1233E-09  0.6465E-10  0.3355E-11  0.1254E-11  0.1767E-13  0.2374E-13  0.7887E-06  0.4676E-06  0.1767E-13  0.2374E-13  0.3355E-11  0.1254E-11
      1.363  0.3962E-02  0.3930E-02  0.2163E-04  0.1689E-04  0.3893E-04  0.4312E-04  0.2163E-04  0.1689E-04  0.5884E-06  0.3264E-06  0.1501E-12  0.4861E-13  0.9794E-06  0.6308E-06  0.1501E-12  0.4861E-13  0.5884E-06  0.3264E-06
      1.484  0.1938E-01  0.1931E-01  0.3183E-03  0.3195E-03  0.5677E-05  0.3744E-05  0.3183E-03  0.3195E-03  0.8667E-05  0.6175E-05  0.2793E-06  0.1320E-06  0.7390E-05  0.5736E-05  0.2793E-06  0.1320E-06  0.8667E-05  0.6175E-05
      1.605  0.3568E-01  0.3435E-01  0.5876E-03  0.5708E-03  0.5287E-03  0.5080E-03  0.5876E-03  0.5708E-03  0.1660E-04  0.1133E-04  0.2574E-04  0.1784E-04  0.1455E-05  0.1116E-05  0.2574E-04  0.1784E-04  0.1660E-04  0.1133E-04
      1.726  0.1188E-01  0.1318E-01  0.9713E-04  0.1233E-03  0.4424E-03  0.4567E-03  0.9713E-04  0.1233E-03  0.2745E-05  0.2450E-05  0.4328E-05  0.3947E-05  0.2524E-04  0.1635E-04  0.4328E-05  0.3947E-05  0.2745E-05  0.2450E-05
      1.847  0.6792E-03  0.9379E-03  0.4216E-08  0.5304E-08  0.4011E-04  0.5606E-04  0.4216E-08  0.5304E-08  0.1271E-09  0.1062E-09  0.4538E-09  0.2147E-09  0.2841E-05  0.2631E-05  0.4538E-09  0.2147E-09  0.1271E-09  0.1062E-09
      1.968  0.5218E-02  0.3129E-02  0.8902E-04  0.5357E-04  0.3122E-03  0.1900E-03  0.8902E-04  0.5357E-04  0.2978E-05  0.1191E-05  0.1655E-04  0.7060E-05  0.1102E-04  0.4357E-05  0.1655E-04  0.7060E-05  0.2978E-05  0.1191E-05
      2.089  0.4691E-01  0.4608E-01  0.1230E-02  0.1148E-02  0.2028E-02  0.2148E-02  0.1230E-02  0.1148E-02  0.7498E-04  0.4552E-04  0.1075E-03  0.7985E-04  0.1167E-03  0.7543E-04  0.1075E-03  0.7985E-04  0.7498E-04  0.4552E-04
      2.211  0.2394E-01  0.2098E-01  0.1189E-02  0.1038E-02  0.2880E-03  0.2290E-03  0.1189E-02  0.1038E-02  0.1044E-03  0.6194E-04  0.5101E-04  0.2432E-04  0.5717E-04  0.3831E-04  0.5101E-04  0.2432E-04  0.1044E-03  0.6194E-04
      2.332  0.2273E-01  0.2731E-01  0.1150E-02  0.1396E-02  0.3609E-03  0.4239E-03  0.1150E-02  0.1396E-02  0.1080E-03  0.8612E-04  0.6089E-04  0.5248E-04  0.5948E-04  0.4033E-04  0.6089E-04  0.5248E-04  0.1080E-03  0.8612E-04
      2.453  0.2378E-01  0.2254E-01  0.1200E-02  0.1160E-02  0.7692E-03  0.7336E-03  0.1200E-02  0.1160E-02  0.1817E-03  0.1123E-03  0.4847E-05  0.6913E-06  0.2838E-03  0.1767E-03  0.4847E-05  0.6913E-06  0.1817E-03  0.1123E-03
      2.574  0.3625E-01  0.3223E-01  0.2363E-02  0.2129E-02  0.6739E-03  0.5935E-03  0.2363E-02  0.2129E-02  0.3730E-03  0.2141E-03  0.1771E-03  0.9000E-04  0.1615E-03  0.1106E-03  0.1771E-03  0.9000E-04  0.3730E-03  0.2141E-03
      2.695  0.5081E-01  0.4469E-01  0.2114E-02  0.2229E-02  0.4169E-02  0.2924E-02  0.2114E-02  0.2229E-02  0.2118E-03  0.1630E-03  0.5561E-03  0.3190E-03  0.3655E-03  0.1090E-03  0.5561E-03  0.3190E-03  0.2118E-03  0.1630E-03
      2.816  0.2186E-01  0.3445E-01  0.4294E-03  0.7700E-03  0.2867E-02  0.4431E-02  0.4294E-03  0.7700E-03  0.2338E-04  0.3042E-04  0.1840E-03  0.2062E-03  0.4747E-03  0.4296E-03  0.1840E-03  0.2062E-03  0.2338E-04  0.3042E-04
      2.937  0.2489E-01  0.1054E-01  0.1664E-02  0.7127E-03  0.1552E-02  0.6883E-03  0.1664E-02  0.7127E-03  0.3271E-03  0.8238E-04  0.4983E-03  0.1317E-03  0.1296E-04  0.6328E-05  0.4983E-03  0.1317E-03  0.3271E-03  0.8238E-04
      3.058  0.9746E-02  0.2462E-01  0.6518E-03  0.1695E-02  0.6073E-03  0.1564E-02  0.6518E-03  0.1695E-02  0.1282E-03  0.1968E-03  0.1953E-03  0.3118E-03  0.4886E-05  0.6497E-05  0.1953E-03  0.3118E-03  0.1282E-03  0.1968E-03
      3.180  0.3876E-03  0.7029E-04  0.3730E-04  0.4915E-05  0.1795E-04  0.4392E-05  0.3730E-04  0.4915E-05  0.1046E-04  0.5823E-06  0.2587E-05  0.8735E-06  0.1253E-04  0.4439E-07  0.2587E-05  0.8735E-06  0.1046E-04  0.5823E-06
      3.301  0.5675E-01  0.1722E-01  0.4668E-02  0.1619E-02  0.4341E-02  0.1035E-02  0.4668E-02  0.1619E-02  0.1194E-02  0.2601E-03  0.8049E-03  0.1333E-03  0.1620E-02  0.2538E-03  0.8049E-03  0.1333E-03  0.1194E-02  0.2601E-03
      3.422  0.7119E-01  0.7169E-01  0.7747E-02  0.6365E-02  0.2353E-02  0.5311E-02  0.7747E-02  0.6365E-02  0.2353E-02  0.1027E-02  0.1007E-02  0.6927E-03  0.1593E-02  0.1186E-02  0.1007E-02  0.6927E-03  0.2353E-02  0.1027E-02
      3.543  0.3620E-01  0.4941E-01  0.2333E-02  0.6009E-02  0.5149E-02  0.9437E-03  0.2333E-02  0.6009E-02  0.6546E-03  0.1130E-02  0.1251E-02  0.3760E-03  0.1653E-02  0.6632E-03  0.1251E-02  0.3760E-03  0.6546E-03  0.1130E-02
      3.664  0.3884E-01  0.5121E-01  0.1936E-02  0.2483E-02  0.6874E-02  0.9720E-02  0.1936E-02  0.2483E-02  0.5483E-03  0.3245E-03  0.1319E-02  0.1182E-02  0.2916E-02  0.1775E-02  0.1319E-02  0.1182E-02  0.5483E-03  0.3245E-03
      3.785  0.6825E-01  0.2466E-01  0.8409E-02  0.1970E-02  0.3310E-02  0.3440E-02  0.8409E-02  0.1970E-02  0.4002E-02  0.3881E-03  0.3037E-02  0.5801E-03  0.1395E-02  0.7928E-03  0.3037E-02  0.5801E-03  0.4002E-02  0.3881E-03
      3.906  0.2754E-01  0.6266E-01  0.3852E-02  0.8175E-02  0.4061E-03  0.3130E-02  0.3852E-02  0.8175E-02  0.2966E-02  0.2090E-02  0.6855E-03  0.1520E-02  0.1158E-02  0.7356E-03  0.6855E-03  0.1520E-02  0.2966E-02  0.2090E-02
      4.027  0.4220E-02  0.2882E-01  0.3881E-03  0.4388E-02  0.6534E-03  0.4286E-03  0.3881E-03  0.4388E-02  0.2914E-03  0.1677E-02  0.3360E-03  0.3468E-03  0.3311E-03  0.7330E-03  0.3360E-03  0.3468E-03  0.2914E-03  0.1677E-02
      4.149  0.5312E-01  0.3597E-02  0.4624E-02  0.3646E-03  0.8777E-02  0.5382E-03  0.4624E-02  0.3646E-03  0.3604E-02  0.1094E-03  0.4600E-02  0.1070E-03  0.5511E-02  0.1459E-03  0.4600E-02  0.1070E-03  0.3604E-02  0.1094E-03
      4.270  0.5595E-01  0.3282E-01  0.6010E-02  0.2520E-02  0.9170E-02  0.7283E-02  0.6010E-02  0.2520E-02  0.3380E-02  0.6448E-03  0.8260E-02  0.1525E-02  0.1042E-02  0.1508E-02  0.8260E-02  0.1525E-02  0.3380E-02  0.6448E-03
      4.391  0.3736E-01  0.5216E-01  0.2004E-02  0.6426E-02  0.9841E-02  0.7002E-02  0.2004E-02  0.6426E-02  0.1017E-02  0.2360E-02  0.3019E-02  0.3380E-02  0.1236E-01  0.1654E-02  0.3019E-02  0.3380E-02  0.1017E-02  0.2360E-02
      4.512  0.3561E-01  0.5400E-01  0.4716E-02  0.5404E-02  0.4257E-02  0.1132E-01  0.4716E-02  0.5404E-02  0.5601E-02  0.1394E-02  0.5565E-02  0.4050E-02  0.5732E-02  0.1330E-02  0.5565E-02  0.4050E-02  0.5601E-02  0.1394E-02
      4.633  0.8132E-01  0.1436E-01  0.1607E-01  0.7656E-03  0.1200E-02  0.4315E-02  0.1607E-01  0.7656E-03  0.2046E-01  0.1859E-03  0.4443E-02  0.2850E-03  0.1530E-01  0.3769E-02  0.4443E-02  0.2850E-03  0.2046E-01  0.1859E-03
      4.754  0.7047E-01  0.3835E-01  0.1156E-01  0.5535E-02  0.3541E-02  0.5712E-02  0.1156E-01  0.5535E-02  0.2653E-01  0.2090E-02  0.2293E-01  0.9669E-03  0.1452E-01  0.5912E-02  0.2293E-01  0.9669E-03  0.2653E-01  0.2090E-02
      4.875  0.1307E+00  0.5762E-01  0.1373E-01  0.1147E-01  0.2235E-01  0.3231E-02  0.1373E-01  0.1147E-01  0.5000E-01  0.6545E-02  0.5958E-01  0.3312E-02  0.5853E-01  0.2852E-02  0.5958E-01  0.3312E-02  0.5000E-01  0.6545E-02
      4.996  0.8414E-01  0.5225E-01  0.7584E-02  0.1175E-01  0.1078E-01  0.7654E-03  0.7584E-02  0.1175E-01  0.5633E-01  0.7995E-02  0.8188E-01  0.1655E-02  0.7091E-01  0.3932E-02  0.8188E-01  0.1655E-02  0.5633E-01  0.7995E-02
      5.118  0.6095E-01  0.5384E-01  0.6858E-02  0.9222E-02  0.8247E-02  0.9781E-02  0.6858E-02  0.9222E-02  0.5420E-01  0.4349E-02  0.6875E-01  0.7141E-02  0.4080E-01  0.3284E-02  0.6875E-01  0.7141E-02  0.5420E-01  0.4349E-02
      5.239  0.3630E-01  0.8036E-01  0.4937E-02  0.1191E-01  0.5276E-02  0.1677E-01  0.4937E-02  0.1191E-01  0.6999E-01  0.8062E-02  0.3861E-01  0.1072E-01  0.2813E-01  0.1051E-01  0.3861E-01  0.1072E-01  0.6999E-01  0.8062E-02
      5.360  0.9872E-01  0.2571E-01  0.1685E-01  0.3748E-02  0.2010E-01  0.6010E-02  0.1685E-01  0.3748E-02  0.1451E+00  0.4832E-02  0.1368E+00  0.2725E-02  0.1450E+00  0.4968E-02  0.1368E+00  0.2725E-02  0.1451E+00  0.4832E-02
      5.481  0.9195E-01  0.9013E-01  0.1986E-01  0.1426E-01  0.1837E-01  0.1675E-01  0.1986E-01  0.1426E-01  0.1621E+00  0.1811E-01  0.1326E+00  0.1795E-01  0.1645E+00  0.2050E-01  0.1326E+00  0.1795E-01  0.1621E+00  0.1811E-01