    2    2  100    2
  0.1117317E+02  0.2519665E-09  0.2519665E-09  0.4064340E-09  0.5000000E-15
  1.000000000000000E-004
  CAR 
 Co-hcc                                  
     18     95     24
 
  0.0000000E+00  0.0000000E+00  0.0000000E+00  0.8680556E-03
      1          1.105698        1.103155   1.000000   1.000000
      2          4.836192        5.816461   1.000000   1.000000
      3          7.258747        8.941286   1.000000   1.000000
      4          7.267914        8.958484   1.000000   1.000000
      5          7.267914        8.958485   1.000000   1.000000
      6          7.565978        9.311037   1.000000   1.000000
      7          7.565978        9.311037   1.000000   1.000000
      8          7.889326        9.694814   1.000000   0.999027
      9          7.889326        9.694814   1.000000   0.999027
     10          8.947289        9.744496   1.000000   0.954794
     11          8.947289       10.871327   1.000000   0.000000
     12          9.814820       10.871328   0.383676   0.000000
     13         15.959775       16.994491   0.000000   0.000000
     14         31.536320       31.250757   0.000000   0.000000
     15         33.782929       34.141299   0.000000   0.000000
     16         33.782931       34.141300   0.000000   0.000000
     17         34.563047       34.405697   0.000000   0.000000
     18         35.039605       34.805204   0.000000   0.000000
     19         35.170084       35.470543   0.000000   0.000000
     20         35.170086       35.470546   0.000000   0.000000
     21         39.860094       39.789070   0.000000   0.000000
     22         39.860094       39.789072   0.000000   0.000000
     23         40.588164       40.830802   0.000000   0.000000
     24         41.230740       40.893266   0.000000   0.000000
 
  0.8333333E-01 -0.1387779E-16  0.0000000E+00  0.5208333E-02
      1          1.343029        1.341346   1.000000   1.000000
      2          4.975635        5.976884   1.000000   1.000000
      3          7.047411        8.689656   1.000000   1.000000
      4          7.375667        9.074220   1.000000   1.000000
      5          7.444115        9.077772   1.000000   1.000000
      6          7.523974        9.156027   1.000000   1.000000
      7          7.661235        9.252382   1.000000   1.000000
      8          7.751865        9.416496   1.000000   1.000000
      9          7.822283        9.615850   1.000000   1.000000
     10          8.249574        9.641869   1.000000   0.999998
     11          8.975877       10.905577   1.000000   0.000000
     12         10.815886       11.745324   0.000000   0.000000
     13         16.004809       17.015680   0.000000   0.000000
     14         29.563352       29.675819   0.000000   0.000000
     15         31.727580       31.929533   0.000000   0.000000
     16         31.880693       32.061237   0.000000   0.000000
     17         35.048908       34.825644   0.000000   0.000000
     18         35.380442       35.315693   0.000000   0.000000
     19         36.761362       36.635158   0.000000   0.000000
     20         37.462765       37.764621   0.000000   0.000000
     21         38.223634       38.465035   0.000000   0.000000
     22         39.311070       39.321867   0.000000   0.000000
     23         40.159564       40.432292   0.000000   0.000000
     24         40.319190       40.626039   0.000000   0.000000
 
  0.1666667E+00 -0.1387779E-16  0.0000000E+00  0.5208333E-02
      1          2.030255        2.035493   1.000000   1.000000
      2          5.319684        6.388932   1.000000   1.000000
      3          6.789066        8.241193   1.000000   1.000000
      4          7.098325        8.352258   1.000000   1.000000
      5          7.362876        9.039742   1.000000   1.000000
      6          7.656702        9.415794   1.000000   1.000000
      7          7.679315        9.422199   1.000000   1.000000
      8          7.733698        9.471913   1.000000   1.000000
      9          7.871514        9.489781   1.000000   1.000000
     10          7.927332        9.711668   1.000000   0.995626
     11          9.036948       10.977870   1.000000   0.000000
     12         12.353800       13.193010   0.000000   0.000000
     13         16.161329       17.097659   0.000000   0.000000
     14         25.749217       26.085446   0.000000   0.000000
     15         29.389669       29.700510   0.000000   0.000000
     16         30.964373       31.045579   0.000000   0.000000
     17         32.861363       32.869071   0.000000   0.000000
     18         35.151427       34.915190   0.000000   0.000000
     19         35.712653       35.903364   0.000000   0.000000
     20         37.835593       38.093658   0.000000   0.000000
     21         38.459354       38.564878   0.000000   0.000000
     22         39.014173       39.288398   0.000000   0.000000
     23         39.553927       39.851640   0.000000   0.000000
     24         40.927795       41.461579   0.000000   0.000000
 
  0.2500000E+00 -0.1387779E-16  0.0000000E+00  0.5208333E-02
      1          3.072161        3.113998   1.000000   1.000000
      2          5.594108        6.794681   1.000000   1.000000
      3          6.407789        7.582631   1.000000   1.000000
      4          6.636283        8.054942   1.000000   1.000000
      5          7.278738        8.894580   1.000000   1.000000
      6          7.457271        9.190633   1.000000   1.000000
      7          7.680403        9.285395   1.000000   1.000000
      8          8.118755        9.892632   1.000000   0.006268
      9          8.140138        9.911000   1.000000   0.001280
     10          8.309526       10.137592   1.000000   0.000000
     11          9.095030       11.045606   1.000000   0.000000
     12         14.103784       14.855678   0.000000   0.000000
     13         16.463477       17.268683   0.000000   0.000000
     14         22.081692       22.555001   0.000000   0.000000
     15         27.364669       27.636442   0.000000   0.000000
     16         29.536310       29.670129   0.000000   0.000000
     17         29.754416       29.968324   0.000000   0.000000
     18         33.337152       33.817929   0.000000   0.000000
     19         34.119940       33.943197   0.000000   0.000000
     20         37.523055       37.927134   0.000000   0.000000
     21         37.772902       37.948587   0.000000   0.000000
     22         38.542672       38.610051   0.000000   0.000000
     23         39.618621       39.809892   0.000000   0.000000
     24         42.505040       42.778662   0.000000   0.000000
 
  0.3333333E+00 -0.2775558E-16  0.0000000E+00  0.5208333E-02
      1          4.211863        4.411213   1.000000   1.000000
      2          5.529771        6.832573   1.000000   1.000000
      3          5.903404        7.120380   1.000000   1.000000
      4          6.751516        7.943312   1.000000   1.000000
      5          7.277599        8.983135   1.000000   1.000000
      6          7.398793        8.987051   1.000000   1.000000
      7          7.514484        9.084071   1.000000   1.000000
      8          8.585422       10.446732   1.000000   0.000000
      9          8.723390       10.514845   1.000000   0.000000
     10          8.794722       10.601739   1.000000   0.000000
     11          9.135171       11.091779   1.000000   0.000000
     12         16.020324       16.674325   0.000000   0.000000
     13         16.571280       17.213525   0.000000   0.000000
     14         19.241143       19.856093   0.000000   0.000000
     15         25.762352       25.980323   0.000000   0.000000
     16         26.494213       26.761157   0.000000   0.000000
     17         27.466748       27.843925   0.000000   0.000000
     18         31.903846       32.355703   0.000000   0.000000
     19         32.997950       32.833783   0.000000   0.000000
     20         35.777920       36.145750   0.000000   0.000000
     21         37.302333       37.528224   0.000000   0.000000
     22         39.272106       39.433863   0.000000   0.000000
     23         41.382364       41.550813   0.000000   0.000000
     24         43.616179       43.876965   0.000000   0.000000
 
  0.4166667E+00 -0.2775558E-16  0.0000000E+00  0.5208333E-02
      1          4.958899        5.573273   1.000000   1.000000
      2          5.351726        6.632902   1.000000   1.000000
      3          5.601393        6.849253   1.000000   1.000000
      4          7.113302        7.971690   1.000000   1.000000
      5          7.154755        8.841733   1.000000   1.000000
      6          7.397844        8.938305   1.000000   1.000000
      7          7.592197        9.201391   1.000000   1.000000
      8          8.933199       10.850111   1.000000   0.000000
      9          9.065388       10.993265   1.000000   0.000000
     10          9.156764       11.116320   1.000000   0.000000
     11          9.881721       11.419006   0.014332   0.000000
     12         14.718419       15.494018   0.000000   0.000000
     13         18.009601       18.543386   0.000000   0.000000
     14         19.184497       19.695439   0.000000   0.000000
     15         23.841121       24.253352   0.000000   0.000000
     16         24.711866       24.876892   0.000000   0.000000
     17         24.847326       25.333278   0.000000   0.000000
     18         31.432816       31.881465   0.000000   0.000000
     19         32.240737       32.067618   0.000000   0.000000
     20         34.649185       34.979679   0.000000   0.000000
     21         37.031862       37.288384   0.000000   0.000000
     22         39.723567       39.962094   0.000000   0.000000
     23         43.756032       43.929402   0.000000   0.000000
     24         44.213799       44.446968   0.000000   0.000000
 
  0.5000000E+00 -0.2775558E-16  0.0000000E+00  0.2604167E-02
      1          5.211834        6.104636   1.000000   1.000000
      2          5.214885        6.457976   1.000000   1.000000
      3          5.501095        6.760229   1.000000   1.000000
      4          7.111290        8.049778   1.000000   1.000000
      5          7.355855        8.791787   1.000000   1.000000
      6          7.356653        8.885294   1.000000   1.000000
      7          7.664507        9.286452   1.000000   1.000000
      8          9.058832       10.994790   1.000000   0.000000
      9          9.163309       11.123695   1.000000   0.000000
     10          9.203279       11.155553   1.000000   0.000000
     11         11.042333       12.303471   0.000000   0.000000
     12         12.982922       13.993052   0.000000   0.000000
     13         19.313077       19.725354   0.000000   0.000000
     14         19.923537       20.306726   0.000000   0.000000
     15         22.318825       22.861650   0.000000   0.000000
     16         23.424841       23.996802   0.000000   0.000000
     17         24.342345       24.484085   0.000000   0.000000
     18         31.317142       31.770400   0.000000   0.000000
     19         31.978282       31.800022   0.000000   0.000000
     20         34.257681       34.572951   0.000000   0.000000
     21         36.944158       37.210983   0.000000   0.000000
     22         39.891290       40.159938   0.000000   0.000000
     23         44.370295       44.544875   0.000000   0.000000
     24         46.318050       46.279533   0.000000   0.000000
 
  0.8333333E-01  0.8333333E-01  0.0000000E+00  0.5208333E-02
      1          1.806135        1.807991   1.000000   1.000000
      2          5.222926        6.267212   1.000000   1.000000
      3          6.843426        8.435447   1.000000   1.000000
      4          7.331752        8.459264   1.000000   1.000000
      5          7.425206        9.119132   1.000000   1.000000
      6          7.593433        9.320722   1.000000   1.000000
      7          7.595434        9.323355   1.000000   1.000000
      8          7.632366        9.385439   1.000000   1.000000
      9          7.871575        9.630126   1.000000   1.000000
     10          7.984234        9.645164   1.000000   0.999997
     11          9.011676       10.947773   1.000000   0.000000
     12         11.920300       12.784150   0.000000   0.000000
     13         16.107403       17.069170   0.000000   0.000000
     14         27.502994       27.727048   0.000000   0.000000
     15         28.140265       28.485850   0.000000   0.000000
     16         33.394260       33.441439   0.000000   0.000000
     17         34.393304       34.278337   0.000000   0.000000
     18         34.567966       34.459862   0.000000   0.000000
     19         34.634440       34.680071   0.000000   0.000000
     20         37.654313       37.820591   0.000000   0.000000
     21         38.379580       38.836211   0.000000   0.000000
     22         38.922560       39.416559   0.000000   0.000000
     23         41.206748       41.317896   0.000000   0.000000
     24         41.629517       41.765870   0.000000   0.000000
 
  0.1666667E+00  0.8333333E-01  0.0000000E+00  0.1041667E-01
      1          2.678943        2.698662   1.000000   1.000000
      2          5.574691        6.710211   1.000000   1.000000
      3          6.587769        7.815106   1.000000   1.000000
      4          6.663228        8.089031   1.000000   1.000000
      5          7.314399        8.955141   1.000000   1.000000
      6          7.422307        9.126384   1.000000   1.000000
      7          7.832911        9.496206   1.000000   1.000000
      8          7.834304        9.589120   1.000000   1.000000
      9          7.995974        9.763636   1.000000   0.875312
     10          8.265579       10.065466   1.000000   0.000000
     11          9.055966       10.999590   1.000000   0.000000
     12         13.470649       14.258303   0.000000   0.000000
     13         16.356662       17.216349   0.000000   0.000000
     14         23.959089       24.353630   0.000000   0.000000
     15         26.135373       26.469014   0.000000   0.000000
     16         31.231342       31.264856   0.000000   0.000000
     17         32.149826       32.308963   0.000000   0.000000
     18         33.252219       33.262375   0.000000   0.000000
     19         34.701856       34.891603   0.000000   0.000000
     20         35.917881       36.372675   0.000000   0.000000
     21         37.931169       37.955330   0.000000   0.000000
     22         39.569116       40.016203   0.000000   0.000000
     23         41.192175       41.362348   0.000000   0.000000
     24         41.647126       41.851808   0.000000   0.000000
 
  0.2500000E+00  0.8333333E-01  0.0000000E+00  0.1041667E-01
      1          3.806022        3.904536   1.000000   1.000000
      2          5.688624        6.959608   1.000000   1.000000
      3          6.110586        7.311336   1.000000   1.000000
      4          6.527147        7.859804   1.000000   1.000000
      5          7.245562        8.909806   1.000000   1.000000
      6          7.329261        8.922711   1.000000   1.000000
      7          7.648895        9.281723   1.000000   1.000000
      8          8.213941        9.998091   1.000000   0.000000
      9          8.469628       10.299199   1.000000   0.000000
     10          8.803772       10.608109   1.000000   0.000000
     11          9.093364       11.042935   1.000000   0.000000
     12         15.267172       15.968727   0.000000   0.000000
     13         16.738492       17.443394   0.000000   0.000000
     14         20.542840       21.074831   0.000000   0.000000
     15         24.629686       24.950909   0.000000   0.000000
     16         28.088727       28.273817   0.000000   0.000000
     17         29.425438       29.751697   0.000000   0.000000
     18         32.011780       32.023892   0.000000   0.000000
     19         33.933606       34.275052   0.000000   0.000000
     20         34.368459       34.734873   0.000000   0.000000
     21         38.586719       38.589958   0.000000   0.000000
     22         41.045354       41.237285   0.000000   0.000000
     23         41.290461       41.498532   0.000000   0.000000
     24         42.314372       42.594933   0.000000   0.000000
 
  0.3333333E+00  0.8333333E-01  0.0000000E+00  0.1041667E-01
      1          4.797200        5.179113   1.000000   1.000000
      2          5.523219        6.829009   1.000000   1.000000
      3          5.735806        6.978416   1.000000   1.000000
      4          6.759518        7.832884   1.000000   1.000000
      5          7.130453        8.775874   1.000000   1.000000
      6          7.468256        9.056162   1.000000   1.000000
      7          7.513375        9.114592   1.000000   1.000000
      8          8.687681       10.524399   1.000000   0.000000
      9          8.873233       10.762133   1.000000   0.000000
     10          9.116773       11.069701   1.000000   0.000000
     11          9.581109       11.269199   1.000000   0.000000
     12         16.059742       16.711809   0.000000   0.000000
     13         17.227429       17.826867   0.000000   0.000000
     14         18.940929       19.524331   0.000000   0.000000
     15         23.468095       23.757343   0.000000   0.000000
     16         25.232538       25.562317   0.000000   0.000000
     17         26.464576       26.882823   0.000000   0.000000
     18         31.117965       31.110536   0.000000   0.000000
     19         33.286218       33.621023   0.000000   0.000000
     20         33.347417       33.724677   0.000000   0.000000
     21         38.609038       38.677944   0.000000   0.000000
     22         41.384080       41.595262   0.000000   0.000000
     23         42.900690       43.086591   0.000000   0.000000
     24         43.967159       44.219608   0.000000   0.000000
 
  0.4166667E+00  0.8333333E-01  0.0000000E+00  0.1041667E-01
      1          5.235096        6.069224   1.000000   1.000000
      2          5.368966        6.616287   1.000000   1.000000
      3          5.548093        6.814556   1.000000   1.000000
      4          7.083740        7.911660   1.000000   1.000000
      5          7.120402        8.740084   1.000000   1.000000
      6          7.349122        8.889010   1.000000   1.000000
      7          7.660980        9.286902   1.000000   1.000000
      8          9.023574       10.939543   1.000000   0.000000
      9          9.091047       11.015472   1.000000   0.000000
     10          9.127143       11.081390   1.000000   0.000000
     11         10.857687       12.189156   0.000000   0.000000
     12         13.747778       14.657016   0.000000   0.000000
     13         19.112101       19.579672   0.000000   0.000000
     14         19.818007       20.242119   0.000000   0.000000
     15         22.699951       23.001511   0.000000   0.000000
     16         22.905107       23.388565   0.000000   0.000000
     17         24.229080       24.693074   0.000000   0.000000
     18         30.654372       30.633015   0.000000   0.000000
     19         32.711470       33.037860   0.000000   0.000000
     20         33.055600       33.437421   0.000000   0.000000
     21         38.486313       38.591824   0.000000   0.000000
     22         41.587511       41.841715   0.000000   0.000000
     23         44.399456       44.589969   0.000000   0.000000
     24         45.323514       45.477367   0.000000   0.000000
 
  0.1666667E+00  0.1666667E+00  0.0000000E+00  0.5208333E-02
      1          3.662323        3.729107   1.000000   1.000000
      2          5.858741        7.075016   1.000000   1.000000
      3          6.219869        7.410911   1.000000   1.000000
      4          6.311291        7.737237   1.000000   1.000000
      5          7.180267        8.835779   1.000000   1.000000
      6          7.325576        8.927518   1.000000   1.000000
      7          7.735788        9.387998   1.000000   1.000000
      8          7.992346        9.772362   1.000000   0.817287
      9          8.459352       10.276154   1.000000   0.000000
     10          8.823806       10.620433   1.000000   0.000000
     11          9.057635       11.001194   1.000000   0.000000
     12         15.012098       15.734205   0.000000   0.000000
     13         16.767309       17.502832   0.000000   0.000000
     14         22.269587       22.693071   0.000000   0.000000
     15         22.668794       23.097513   0.000000   0.000000
     16         29.655300       29.650860   0.000000   0.000000
     17         30.362842       30.617967   0.000000   0.000000
     18         31.412076       31.735951   0.000000   0.000000
     19         32.146157       32.449747   0.000000   0.000000
     20         36.782456       37.040852   0.000000   0.000000
     21         38.978684       38.922336   0.000000   0.000000
     22         39.252732       39.690062   0.000000   0.000000
     23         42.789711       43.015027   0.000000   0.000000
     24         44.024915       44.181442   0.000000   0.000000
 
  0.2500000E+00  0.1666667E+00  0.0000000E+00  0.1041667E-01
      1          4.738550        4.965189   1.000000   1.000000
      2          5.844745        7.112426   1.000000   1.000000
      3          5.870088        7.146790   1.000000   1.000000
      4          6.291876        7.557503   1.000000   1.000000
      5          7.034485        8.648816   1.000000   1.000000
      6          7.464275        9.060401   1.000000   1.000000
      7          7.555721        9.170976   1.000000   1.000000
      8          8.282840       10.093914   1.000000   0.000000
      9          8.875543       10.753364   1.000000   0.000000
     10          9.055493       10.998588   1.000000   0.000000
     11          9.598119       11.308830   1.000000   0.000000
     12         16.833494       17.475955   0.000000   0.000000
     13         17.174874       17.766164   0.000000   0.000000
     14         19.447118       20.001152   0.000000   0.000000
     15         21.305037       21.720425   0.000000   0.000000
     16         26.981885       27.204639   0.000000   0.000000
     17         28.399190       28.787688   0.000000   0.000000
     18         29.036723       29.207925   0.000000   0.000000
     19         30.858212       31.209283   0.000000   0.000000
     20         36.926053       37.210391   0.000000   0.000000
     21         40.325224       40.240266   0.000000   0.000000
     22         41.603560       41.933155   0.000000   0.000000
     23         43.410480       43.601672   0.000000   0.000000
     24         43.973644       44.136117   0.000000   0.000000
 
  0.3333333E+00  0.1666667E+00  0.0000000E+00  0.1041667E-01
      1          5.410513        6.054344   1.000000   1.000000
      2          5.653539        6.936883   1.000000   1.000000
      3          5.655096        6.938569   1.000000   1.000000
      4          6.599540        7.609669   1.000000   1.000000
      5          6.994307        8.593982   1.000000   1.000000
      6          7.360785        8.927796   1.000000   1.000000
      7          7.655996        9.285027   1.000000   1.000000
      8          8.666228       10.519308   1.000000   0.000000
      9          9.052926       10.995356   1.000000   0.000000
     10          9.081697       10.999080   1.000000   0.000000
     11         10.760725       12.193878   0.000000   0.000000
     12         15.397423       16.118811   0.000000   0.000000
     13         18.816027       19.358851   0.000000   0.000000
     14         19.413620       19.902431   0.000000   0.000000
     15         20.560819       20.948437   0.000000   0.000000
     16         24.322457       24.705135   0.000000   0.000000
     17         25.542775       25.985875   0.000000   0.000000
     18         28.404094       28.547807   0.000000   0.000000
     19         30.117037       30.467690   0.000000   0.000000
     20         36.585557       36.892103   0.000000   0.000000
     21         41.104504       41.034431   0.000000   0.000000
     22         43.715434       43.890212   0.000000   0.000000
     23         44.918501       45.181999   0.000000   0.000000
     24         45.022782       45.186121   0.000000   0.000000
 
  0.4166667E+00  0.1666667E+00  0.0000000E+00  0.5208333E-02
      1          5.563969        6.508068   1.000000   1.000000
      2          5.572439        6.810644   1.000000   1.000000
      3          5.580874        6.879766   1.000000   1.000000
      4          6.815126        7.674473   1.000000   1.000000
      5          7.009779        8.628217   1.000000   1.000000
      6          7.259857        8.784259   1.000000   1.000000
      7          7.737644        9.385247   1.000000   1.000000
      8          8.924689       10.816367   1.000000   0.000000
      9          9.051688       10.981904   1.000000   0.000000
     10          9.061511       10.993773   1.000000   0.000000
     11         12.041607       13.104267   0.000000   0.000000
     12         13.536618       14.535991   0.000000   0.000000
     13         19.927465       20.327414   0.000000   0.000000
     14         20.228273       20.663122   0.000000   0.000000
     15         20.607192       20.984224   0.000000   0.000000
     16         22.683174       23.190101   0.000000   0.000000
     17         24.057906       24.553062   0.000000   0.000000
     18         28.195437       28.333414   0.000000   0.000000
     19         29.855576       30.202262   0.000000   0.000000
     20         36.452313       36.764363   0.000000   0.000000
     21         41.246340       41.197320   0.000000   0.000000
     22         44.566883       44.728016   0.000000   0.000000
     23         44.577557       44.811828   0.000000   0.000000
     24         46.312829       46.724920   0.000000   0.000000
 
  0.2500000E+00  0.2500000E+00  0.0000000E+00  0.5208333E-02
      1          5.538261        6.060847   1.000000   1.000000
      2          5.713999        7.007289   1.000000   1.000000
      3          6.033082        7.273316   1.000000   1.000000
      4          6.090399        7.288507   1.000000   1.000000
      5          6.934672        8.508662   1.000000   1.000000
      6          7.375145        8.951616   1.000000   1.000000
      7          7.661607        9.288617   1.000000   1.000000
      8          8.452127       10.291635   1.000000   0.000000
      9          9.014765       10.951524   1.000000   0.000000
     10          9.087774       11.003648   1.000000   0.000000
     11         10.760528       12.227080   0.000000   0.000000
     12         17.165777       17.701202   0.000000   0.000000
     13         17.873289       18.457100   0.000000   0.000000
     14         18.698790       19.270621   0.000000   0.000000
     15         19.968941       20.439184   0.000000   0.000000
     16         26.103628       26.482350   0.000000   0.000000
     17         26.329735       26.495045   0.000000   0.000000
     18         27.176698       27.592758   0.000000   0.000000
     19         28.037474       28.403622   0.000000   0.000000
     20         39.933771       40.128505   0.000000   0.000000
     21         41.653812       42.044002   0.000000   0.000000
     22         42.293354       42.186096   0.000000   0.000000
     23         44.621641       44.842754   0.000000   0.000000
     24         46.546072       46.544068   0.000000   0.000000
 
  0.3333333E+00  0.2500000E+00  0.0000000E+00  0.1041667E-01
      1          5.639981        6.762147   1.000000   1.000000
      2          5.812080        6.970439   1.000000   1.000000
      3          5.907174        7.117162   1.000000   1.000000
      4          6.393139        7.379034   1.000000   1.000000
      5          6.953398        8.512054   1.000000   1.000000
      6          7.187988        8.724522   1.000000   1.000000
      7          7.819935        9.478544   1.000000   1.000000
      8          8.710636       10.580230   1.000000   0.000000
      9          8.990603       10.923568   1.000000   0.000000
     10          9.036235       10.950273   1.000000   0.000000
     11         12.410663       13.495611   0.000000   0.000000
     12         14.930421       15.706306   0.000000   0.000000
     13         17.240967       17.793988   0.000000   0.000000
     14         20.695851       21.179033   0.000000   0.000000
     15         21.049170       21.445016   0.000000   0.000000
     16         23.694270       24.117459   0.000000   0.000000
     17         25.011822       25.459307   0.000000   0.000000
     18         25.886402       26.135197   0.000000   0.000000
     19         27.259343       27.637636   0.000000   0.000000
     20         40.330307       40.573801   0.000000   0.000000
     21         43.875424       43.748762   0.000000   0.000000
     22         44.108765       44.346864   0.000000   0.000000
     23         45.818016       46.429694   0.000000   0.000000
     24         46.664035       46.990346   0.000000   0.000000
 
  0.3333333E+00  0.3333333E+00  0.0000000E+00  0.1736111E-02
      1          5.645280        6.999255   1.000000   1.000000
      2          5.998704        7.103172   1.000000   1.000000
      3          5.998704        7.103173   1.000000   1.000000
      4          6.281609        7.316376   1.000000   1.000000
      5          7.027296        8.558230   1.000000   1.000000
      6          7.027296        8.558230   1.000000   1.000000
      7          7.912534        9.581654   1.000000   1.000000
      8          8.847787       10.738222   1.000000   0.000000
      9          8.847787       10.738222   1.000000   0.000000
     10          8.965859       10.895181   1.000000   0.000000
     11         14.160053       14.949235   0.000000   0.000000
     12         14.915378       15.689906   0.000000   0.000000
     13         14.915378       15.689908   0.000000   0.000000
     14         21.923788       22.290276   0.000000   0.000000
     15         22.645246       23.083067   0.000000   0.000000