    2    2  100    2
  0.1181538E+02  0.2567044E-09  0.2567044E-09  0.4140763E-09  0.5000000E-15
  1.000000000000000E-004
  CAR 
 Co-hcc                                  
     18     95     28
 
  0.0000000E+00  0.0000000E+00  0.0000000E+00  0.8680556E-03
      1          0.680705        0.668386   1.000000   1.000000
      2          4.329037        5.332215   1.000000   1.000000
      3          6.574045        8.292938   1.000000   1.000000
      4          6.584409        8.311867   1.000000   1.000000
      5          6.584409        8.311868   1.000000   1.000000
      6          6.854828        8.635539   1.000000   1.000000
      7          6.854829        8.635539   1.000000   1.000000
      8          7.146389        8.991425   1.000000   0.988614
      9          7.146389        8.991425   1.000000   0.988613
     10          8.116206        9.017876   1.000000   0.936876
     11          8.116206       10.078697   1.000000   0.000000
     12          9.105690       10.078698   0.169865   0.000000
     13         14.742920       15.783193   0.000000   0.000000
     14         30.314514       30.009822   0.000000   0.000000
     15         32.044569       32.397704   0.000000   0.000000
     16         32.044571       32.397707   0.000000   0.000000
     17         33.170584       32.999287   0.000000   0.000000
     18         33.488794       33.436378   0.000000   0.000000
     19         33.488797       33.779547   0.000000   0.000000
     20         33.683041       33.779548   0.000000   0.000000
     21         38.297756       38.206221   0.000000   0.000000
     22         38.297757       38.206223   0.000000   0.000000
     23         38.745110       38.970748   0.000000   0.000000
     24         39.603622       39.246030   0.000000   0.000000
     25         40.992277       41.172760   0.000000   0.000000
     26         40.992277       41.172760   0.000000   0.000000
     27         41.181780       41.714732   0.000000   0.000000
     28         42.856474       43.305884   0.000000   0.000000
 
  0.8333333E-01  0.6938894E-17  0.0000000E+00  0.5208333E-02
      1          0.908216        0.896632   1.000000   1.000000
      2          4.460179        5.485210   1.000000   1.000000
      3          6.382933        8.062749   1.000000   1.000000
      4          6.682994        8.395687   1.000000   1.000000
      5          6.743961        8.421816   1.000000   1.000000
      6          6.816735        8.491921   1.000000   1.000000
      7          6.941875        8.581096   1.000000   1.000000
      8          7.024810        8.732588   1.000000   1.000000
      9          7.085476        8.918853   1.000000   0.999993
     10          7.507368        8.941044   1.000000   0.999893
     11          8.141868       10.109798   1.000000   0.000000
     12         10.000374       10.900797   0.000000   0.000000
     13         14.791598       15.806945   0.000000   0.000000
     14         28.146141       28.278057   0.000000   0.000000
     15         30.099497       30.425070   0.000000   0.000000
     16         30.444080       30.463236   0.000000   0.000000
     17         33.693245       33.452432   0.000000   0.000000
     18         33.905282       33.819617   0.000000   0.000000
     19         35.264105       35.127332   0.000000   0.000000
     20         35.680761       35.977869   0.000000   0.000000
     21         36.423741       36.663743   0.000000   0.000000
     22         37.701030       37.698462   0.000000   0.000000
     23         38.313449       38.570997   0.000000   0.000000
     24         38.376377       38.685001   0.000000   0.000000
     25         40.342098       40.892540   0.000000   0.000000
     26         40.567468       41.017923   0.000000   0.000000
     27         41.995718       42.094269   0.000000   0.000000
     28         42.566565       42.421127   0.000000   0.000000
 
  0.1666667E+00  0.0000000E+00  0.0000000E+00  0.5208333E-02
      1          1.568371        1.563280   1.000000   1.000000
      2          4.784435        5.880164   1.000000   1.000000
      3          6.149199        7.624460   1.000000   1.000000
      4          6.441522        7.751473   1.000000   1.000000
      5          6.670229        8.383866   1.000000   1.000000
      6          6.935022        8.734222   1.000000   1.000000
      7          6.961339        8.740913   1.000000   1.000000
      8          7.009541        8.783657   1.000000   1.000000
      9          7.141985        8.800803   1.000000   1.000000
     10          7.186127        9.005751   1.000000   0.969397
     11          8.196960       10.175728   1.000000   0.000000
     12         11.450427       12.271184   0.000000   0.000000
     13         14.959416       15.896991   0.000000   0.000000
     14         24.360752       24.689366   0.000000   0.000000
     15         27.857796       28.158886   0.000000   0.000000
     16         29.559558       29.625406   0.000000   0.000000
     17         31.425996       31.424416   0.000000   0.000000
     18         33.793509       33.534638   0.000000   0.000000
     19         33.968149       34.214469   0.000000   0.000000
     20         36.068438       36.253070   0.000000   0.000000
     21         36.811825       36.903916   0.000000   0.000000
     22         37.137490       37.409956   0.000000   0.000000
     23         37.685639       38.010647   0.000000   0.000000
     24         38.855717       39.343184   0.000000   0.000000
     25         39.561333       39.839538   0.000000   0.000000
     26         41.819893       41.873645   0.000000   0.000000
     27         44.096307       44.118790   0.000000   0.000000
     28         44.762867       45.936310   0.000000   0.000000
 
  0.2500000E+00  0.0000000E+00  0.0000000E+00  0.5208333E-02
      1          2.574231        2.604401   1.000000   1.000000
      2          5.045675        6.277065   1.000000   1.000000
      3          5.806098        7.019681   1.000000   1.000000
      4          6.012930        7.471856   1.000000   1.000000
      5          6.593482        8.246718   1.000000   1.000000
      6          6.753224        8.527474   1.000000   1.000000
      7          6.964156        8.611454   1.000000   1.000000
      8          7.363549        9.171096   1.000000   0.002519
      9          7.382639        9.191572   1.000000   0.000357
     10          7.535942        9.398709   1.000000   0.000000
     11          8.249500       10.237631   1.000000   0.000000
     12         13.120353       13.855053   0.000000   0.000000
     13         15.285183       16.086335   0.000000   0.000000
     14         20.766621       21.227659   0.000000   0.000000
     15         25.920719       26.181884   0.000000   0.000000
     16         28.151701       28.276723   0.000000   0.000000
     17         28.341771       28.540049   0.000000   0.000000
     18         31.472702       31.954182   0.000000   0.000000
     19         32.744022       32.546533   0.000000   0.000000
     20         35.634226       36.042291   0.000000   0.000000
     21         36.100904       36.262141   0.000000   0.000000
     22         36.852835       36.904703   0.000000   0.000000
     23         37.791603       37.976277   0.000000   0.000000
     24         40.641837       40.869648   0.000000   0.000000
     25         42.029022       42.378691   0.000000   0.000000
     26         44.640048       45.244401   0.000000   0.000000
     27         45.954796       46.765733   0.000000   0.000000
     28         46.011636       47.924007   0.000000   0.000000
 
  0.3333333E+00  0.5551115E-16  0.0000000E+00  0.5208333E-02
      1          3.686264        3.870922   1.000000   1.000000
      2          4.990783        6.330716   1.000000   1.000000
      3          5.341106        6.598758   1.000000   1.000000
      4          6.123864        7.355288   1.000000   1.000000
      5          6.589038        8.330003   1.000000   1.000000
      6          6.704287        8.335753   1.000000   1.000000
      7          6.811936        8.424149   1.000000   1.000000
      8          7.789469        9.685440   1.000000   0.000000
      9          7.914414        9.743404   1.000000   0.000000
     10          7.987714        9.826686   1.000000   0.000000
     11          8.285887       10.279887   1.000000   0.000000
     12         14.961777       15.597948   0.000000   0.000000
     13         15.464600       16.092274   0.000000   0.000000
     14         17.955294       18.563925   0.000000   0.000000
     15         24.394088       24.601401   0.000000   0.000000
     16         25.164450       25.419709   0.000000   0.000000
     17         26.006616       26.375961   0.000000   0.000000
     18         30.136015       30.573564   0.000000   0.000000
     19         31.642767       31.458146   0.000000   0.000000
     20         33.967838       34.335789   0.000000   0.000000
     21         35.612392       35.823248   0.000000   0.000000
     22         37.500230       37.650951   0.000000   0.000000
     23         39.515819       39.678909   0.000000   0.000000
     24         41.808954       41.994095   0.000000   0.000000
     25         45.433215       45.794069   0.000000   0.000000
     26         45.466649       47.660458   0.000000   0.000000
     27         46.107377       49.397154   0.000000   0.000000
     28         47.983986       49.866426   0.000000   0.000000
 
  0.4166667E+00 -0.2775558E-16  0.0000000E+00  0.5208333E-02
      1          4.428581        5.034225   1.000000   1.000000
      2          4.825964        6.148647   1.000000   1.000000
      3          5.063106        6.353675   1.000000   1.000000
      4          6.465701        7.357885   1.000000   1.000000
      5          6.476529        8.204791   1.000000   1.000000
      6          6.705009        8.287952   1.000000   1.000000
      7          6.882415        8.528937   1.000000   1.000000
      8          8.105766       10.055935   1.000000   0.000000
      9          8.226410       10.187273   1.000000   0.000000
     10          8.305446       10.302309   1.000000   0.000000
     11          9.016442       10.578868   0.941748   0.000000
     12         13.675735       14.443236   0.000000   0.000000
     13         16.883661       17.398979   0.000000   0.000000
     14         17.923627       18.425770   0.000000   0.000000
     15         22.565010       22.962672   0.000000   0.000000
     16         23.393211       23.552282   0.000000   0.000000
     17         23.397242       23.870740   0.000000   0.000000
     18         29.708772       30.142744   0.000000   0.000000
     19         30.911348       30.718667   0.000000   0.000000
     20         32.896844       33.226821   0.000000   0.000000
     21         35.330475       35.571730   0.000000   0.000000
     22         37.893248       38.118046   0.000000   0.000000
     23         41.805905       41.977228   0.000000   0.000000
     24         42.470737       42.602012   0.000000   0.000000
     25         45.552874       47.719194   0.000000   0.000000
     26         46.166566       48.712972   0.000000   0.000000
     27         47.460258       49.167888   0.000000   0.000000
     28         48.878818       49.707835   0.000000   0.000000
 
  0.5000000E+00  0.0000000E+00  0.0000000E+00  0.2604167E-02
      1          4.674216        5.577761   1.000000   1.000000
      2          4.702790        5.984671   1.000000   1.000000
      3          4.971021        6.273716   1.000000   1.000000
      4          6.436731        7.413540   1.000000   1.000000
      5          6.666363        8.158549   1.000000   1.000000
      6          6.696050        8.238128   1.000000   1.000000
      7          6.948359        8.607780   1.000000   1.000000
      8          8.219839       10.188485   1.000000   0.000000
      9          8.311450       10.309137   1.000000   0.000000
     10          8.351998       10.336694   1.000000   0.000000
     11         10.152908       11.411258   0.000000   0.000000
     12         11.964185       12.988065   0.000000   0.000000
     13         18.147796       18.541539   0.000000   0.000000
     14         18.688542       19.056805   0.000000   0.000000
     15         21.077212       21.604141   0.000000   0.000000
     16         21.968977       22.536198   0.000000   0.000000
     17         23.047607       23.179836   0.000000   0.000000
     18         29.601445       30.040285   0.000000   0.000000
     19         30.659569       30.462119   0.000000   0.000000
     20         32.526316       32.841033   0.000000   0.000000
     21         35.238693       35.490189   0.000000   0.000000
     22         38.038292       38.291801   0.000000   0.000000
     23         42.651483       42.725874   0.000000   0.000000
     24         44.301150       44.334524   0.000000   0.000000
     25         44.690904       45.089601   0.000000   0.000000
     26         45.451493       48.431975   0.000000   0.000000
     27         46.175629       49.937535   0.000000   0.000000
     28         49.610309       50.752454   0.000000   0.000000
 
  0.8333333E-01  0.8333333E-01  0.0000000E+00  0.5208333E-02
      1          1.352788        1.344491   1.000000   1.000000
      2          4.692957        5.762851   1.000000   1.000000
      3          6.197966        7.825346   1.000000   1.000000
      4          6.655500        7.828558   1.000000   1.000000
      5          6.727217        8.457732   1.000000   1.000000
      6          6.880771        8.646371   1.000000   1.000000
      7          6.884545        8.646527   1.000000   1.000000
      8          6.913375        8.707183   1.000000   1.000000
      9          7.135048        8.929822   1.000000   0.999971
     10          7.245403        8.944047   1.000000   0.999851
     11          8.174164       10.148281   1.000000   0.000000
     12         11.039050       11.883118   0.000000   0.000000
     13         14.901458       15.865539   0.000000   0.000000
     14         26.127084       26.345888   0.000000   0.000000
     15         26.628339       26.966440   0.000000   0.000000
     16         31.889178       31.919779   0.000000   0.000000
     17         32.976338       32.844585   0.000000   0.000000
     18         33.132674       33.036656   0.000000   0.000000
     19         33.150351       33.165454   0.000000   0.000000
     20         35.938326       36.102503   0.000000   0.000000
     21         36.403473       36.867696   0.000000   0.000000
     22         36.896711       37.402007   0.000000   0.000000
     23         39.443529       39.540338   0.000000   0.000000
     24         39.825300       39.938925   0.000000   0.000000
     25         39.969593       40.164024   0.000000   0.000000
     26         40.141378       40.492804   0.000000   0.000000
     27         41.175223       41.243395   0.000000   0.000000
     28         45.085851       46.360949   0.000000   0.000000
 
  0.1666667E+00  0.8333333E-01  0.0000000E+00  0.1041667E-01
      1          2.193224        2.202115   1.000000   1.000000
      2          5.024902        6.189507   1.000000   1.000000
      3          5.966615        7.232314   1.000000   1.000000
      4          6.041843        7.507662   1.000000   1.000000
      5          6.626515        8.304469   1.000000   1.000000
      6          6.722765        8.468508   1.000000   1.000000
      7          7.101595        8.806032   1.000000   1.000000
      8          7.101844        8.892042   1.000000   1.000000
      9          7.251531        9.055311   1.000000   0.680913
     10          7.496375        9.331477   1.000000   0.000000
     11          8.214200       10.195607   1.000000   0.000000
     12         12.514139       13.284448   0.000000   0.000000
     13         15.165916       16.023728   0.000000   0.000000
     14         22.611230       22.994874   0.000000   0.000000
     15         24.720865       25.042387   0.000000   0.000000
     16         29.835897       29.864147   0.000000   0.000000
     17         30.647623       30.798286   0.000000   0.000000
     18         31.800598       31.797415   0.000000   0.000000
     19         33.032694       33.238479   0.000000   0.000000
     20         34.034702       34.472021   0.000000   0.000000
     21         36.314427       36.321764   0.000000   0.000000
     22         37.581639       38.000086   0.000000   0.000000
     23         39.361307       39.517553   0.000000   0.000000
     24         39.799594       39.990363   0.000000   0.000000
     25         41.588313       41.812531   0.000000   0.000000
     26         43.346820       43.388534   0.000000   0.000000
     27         43.572236       43.616450   0.000000   0.000000
     28         45.372419       47.890912   0.000000   0.000000
 
  0.2500000E+00  0.8333333E-01  0.0000000E+00  0.1041667E-01
      1          3.285795        3.371733   1.000000   1.000000
      2          5.136458        6.441487   1.000000   1.000000
      3          5.532094        6.772633   1.000000   1.000000
      4          5.914383        7.287079   1.000000   1.000000
      5          6.561451        8.267705   1.000000   1.000000
      6          6.640399        8.271236   1.000000   1.000000
      7          6.933187        8.607755   1.000000   1.000000
      8          7.449667        9.269212   1.000000   0.000000
      9          7.684585        9.549404   1.000000   0.000000
     10          7.991679        9.830812   1.000000   0.000000
     11          8.248065       10.235248   1.000000   0.000000
     12         14.235633       14.919545   0.000000   0.000000
     13         15.582807       16.279558   0.000000   0.000000
     14         19.257902       19.778143   0.000000   0.000000
     15         23.274052       23.582750   0.000000   0.000000
     16         26.733253       26.909927   0.000000   0.000000
     17         27.890855       28.215983   0.000000   0.000000
     18         30.597257       30.592959   0.000000   0.000000
     19         32.179103       32.516083   0.000000   0.000000
     20         32.609539       32.964045   0.000000   0.000000
     21         36.984776       36.963674   0.000000   0.000000
     22         39.176072       39.358987   0.000000   0.000000
     23         39.405585       39.610962   0.000000   0.000000
     24         40.444845       40.685825   0.000000   0.000000
     25         43.140972       43.506276   0.000000   0.000000
     26         45.758433       46.432431   0.000000   0.000000
     27         45.981969       47.690920   0.000000   0.000000
     28         46.427355       48.905294   0.000000   0.000000
 
  0.3333333E+00  0.8333333E-01  0.0000000E+00  0.1041667E-01
      1          4.259851        4.628709   1.000000   1.000000
      2          4.985819        6.330843   1.000000   1.000000
      3          5.186872        6.471481   1.000000   1.000000
      4          6.132957        7.244515   1.000000   1.000000
      5          6.455810        8.143059   1.000000   1.000000
      6          6.768461        8.398620   1.000000   1.000000
      7          6.809961        8.448715   1.000000   1.000000
      8          7.883217        9.754829   1.000000   0.000000
      9          8.052510        9.975352   1.000000   0.000000
     10          8.269294       10.259741   1.000000   0.000000
     11          8.720798       10.439309   1.000000   0.000000
     12         14.987179       15.623880   0.000000   0.000000
     13         16.124765       16.705764   0.000000   0.000000
     14         17.665193       18.243010   0.000000   0.000000
     15         22.167839       22.444380   0.000000   0.000000
     16         23.927142       24.244128   0.000000   0.000000
     17         24.954742       25.369762   0.000000   0.000000
     18         29.741620       29.719096   0.000000   0.000000
     19         31.573632       31.905120   0.000000   0.000000
     20         31.609437       31.970959   0.000000   0.000000
     21         36.966459       37.012691   0.000000   0.000000
     22         39.520825       39.719812   0.000000   0.000000
     23         40.971351       41.155106   0.000000   0.000000
     24         42.174813       42.344242   0.000000   0.000000
     25         44.880171       45.482305   0.000000   0.000000
     26         45.990389       49.092845   0.000000   0.000000
     27         46.187133       49.344007   0.000000   0.000000
     28         49.144875       49.885157   0.000000   0.000000
 
  0.4166667E+00  0.8333333E-01  0.0000000E+00  0.1041667E-01
      1          4.699491        5.534420   1.000000   1.000000
      2          4.839771        6.131534   1.000000   1.000000
      3          5.014486        6.324540   1.000000   1.000000
      4          6.412397        7.292445   1.000000   1.000000
      5          6.473141        8.110235   1.000000   1.000000
      6          6.660047        8.242468   1.000000   1.000000
      7          6.945401        8.608846   1.000000   1.000000
      8          8.188485       10.137755   1.000000   0.000000
      9          8.250378       10.207919   1.000000   0.000000
     10          8.278686       10.270412   1.000000   0.000000
     11          9.958615       11.299310   0.000000   0.000000
     12         12.716881       13.626720   0.000000   0.000000
     13         17.949215       18.398068   0.000000   0.000000
     14         18.571447       18.983513   0.000000   0.000000
     15         21.437761       21.728549   0.000000   0.000000
     16         21.649378       22.117168   0.000000   0.000000
     17         22.741002       23.201514   0.000000   0.000000
     18         29.299682       29.264499   0.000000   0.000000
     19         31.021441       31.345986   0.000000   0.000000
     20         31.330112       31.694754   0.000000   0.000000
     21         36.823305       36.906477   0.000000   0.000000
     22         39.702196       39.940164   0.000000   0.000000
     23         42.676943       42.764816   0.000000   0.000000
     24         43.329401       43.488718   0.000000   0.000000
     25         45.488198       46.454375   0.000000   0.000000
     26         46.147431       48.301785   0.000000   0.000000
     27         46.174235       48.790028   0.000000   0.000000
     28         48.132470       49.888310   0.000000   0.000000
 
  0.1666667E+00  0.1666667E+00  0.0000000E+00  0.5208333E-02
      1          3.143580        3.198993   1.000000   1.000000
      2          5.292039        6.541109   1.000000   1.000000
      3          5.632868        6.863410   1.000000   1.000000
      4          5.714995        7.180814   1.000000   1.000000
      5          6.502424        8.200182   1.000000   1.000000
      6          6.637473        8.276658   1.000000   1.000000
      7          7.011668        8.705298   1.000000   1.000000
      8          7.246103        9.061368   1.000000   0.617503
      9          7.675520        9.527826   1.000000   0.000000
     10          8.010113        9.841674   1.000000   0.000000
     11          8.215596       10.196913   1.000000   0.000000
     12         13.989364       14.693807   0.000000   0.000000
     13         15.594362       16.323462   0.000000   0.000000
     14         21.005886       21.412993   0.000000   0.000000
     15         21.302459       21.721956   0.000000   0.000000
     16         28.355538       28.333952   0.000000   0.000000
     17         28.864330       29.110354   0.000000   0.000000
     18         29.811263       30.132918   0.000000   0.000000
     19         30.483287       30.792432   0.000000   0.000000
     20         35.013955       35.254792   0.000000   0.000000
     21         37.299921       37.304550   0.000000   0.000000
     22         37.372190       37.703458   0.000000   0.000000
     23         40.898739       41.095518   0.000000   0.000000
     24         42.115845       42.258980   0.000000   0.000000
     25         42.552782       42.602544   0.000000   0.000000
     26         43.681449       43.826994   0.000000   0.000000
     27         44.991100       45.715683   0.000000   0.000000
     28         45.862850       49.380665   0.000000   0.000000
 
  0.2500000E+00  0.1666667E+00  0.0000000E+00  0.1041667E-01
      1          4.190361        4.406284   1.000000   1.000000
      2          5.283131        6.594479   1.000000   1.000000
      3          5.310605        6.621270   1.000000   1.000000
      4          5.698525        7.003308   1.000000   1.000000
      5          6.369536        8.026357   1.000000   1.000000
      6          6.765479        8.398917   1.000000   1.000000
      7          6.847325        8.504549   1.000000   1.000000
      8          7.512202        9.358165   1.000000   0.000000
      9          8.054967        9.967104   1.000000   0.000000
     10          8.213705       10.194580   1.000000   0.000000
     11          8.732334       10.475350   1.000000   0.000000
     12         15.741156       16.365065   0.000000   0.000000
     13         16.050997       16.628483   0.000000   0.000000
     14         18.193775       18.738062   0.000000   0.000000
     15         20.019913       20.423897   0.000000   0.000000
     16         25.648775       25.867003   0.000000   0.000000
     17         26.836100       27.220940   0.000000   0.000000
     18         27.653562       27.798969   0.000000   0.000000
     19         29.213432       29.563260   0.000000   0.000000
     20         35.140416       35.409202   0.000000   0.000000
     21         38.702649       38.601367   0.000000   0.000000
     22         39.687005       39.981735   0.000000   0.000000
     23         41.515253       41.677314   0.000000   0.000000
     24         42.042497       42.198644   0.000000   0.000000
     25         44.296408       44.692063   0.000000   0.000000
     26         45.567435       45.603275   0.000000   0.000000
     27         45.865866       47.779767   0.000000   0.000000
     28         46.017113       49.444969   0.000000   0.000000
 
  0.3333333E+00  0.1666667E+00  0.0000000E+00  0.1041667E-01
      1          4.853040        5.495170   1.000000   1.000000
      2          5.108988        6.431358   1.000000   1.000000
      3          5.111838        6.438795   1.000000   1.000000
      4          5.984986        7.030595   1.000000   1.000000
      5          6.332511        7.974482   1.000000   1.000000
      6          6.669929        8.279328   1.000000   1.000000
      7          6.941636        8.608368   1.000000   1.000000
      8          7.863198        9.750711   1.000000   0.000000
      9          8.211405       10.191639   1.000000   0.000000
     10          8.242165       10.192788   1.000000   0.000000
     11          9.846111       11.298314   0.000000   0.000000
     12         14.328259       15.038998   0.000000   0.000000
     13         17.656179       18.179884   0.000000   0.000000
     14         18.195336       18.672844   0.000000   0.000000
     15         19.301869       19.678712   0.000000   0.000000
     16         23.031486       23.400544   0.000000   0.000000
     17         24.030354       24.470033   0.000000   0.000000
     18         27.056901       27.181643   0.000000   0.000000
     19         28.494195       28.842395   0.000000   0.000000
     20         34.800084       35.089323   0.000000   0.000000
     21         39.458678       39.365379   0.000000   0.000000
     22         41.904410       42.033865   0.000000   0.000000
     23         42.978376       43.202131   0.000000   0.000000
     24         43.041603       43.204124   0.000000   0.000000
     25         44.412985       44.791512   0.000000   0.000000
     26         45.808792       48.335182   0.000000   0.000000
     27         46.082562       48.860395   0.000000   0.000000
     28         48.164032       49.035242   0.000000   0.000000
 
  0.4166667E+00  0.1666667E+00  0.0000000E+00  0.5208333E-02
      1          5.011379        5.964697   1.000000   1.000000
      2          5.027305        6.311168   1.000000   1.000000
      3          5.045271        6.388643   1.000000   1.000000
      4          6.187083        7.072513   1.000000   1.000000
      5          6.346132        8.006870   1.000000   1.000000
      6          6.578331        8.145107   1.000000   1.000000
      7          7.016355        8.701628   1.000000   1.000000
      8          8.099189       10.024775   1.000000   0.000000
      9          8.210321       10.176782   1.000000   0.000000
     10          8.223338       10.190229   1.000000   0.000000
     11         11.114582       12.170813   0.000000   0.000000
     12         12.486247       13.492445   0.000000   0.000000
     13         18.738956       19.124624   0.000000   0.000000
     14         19.022144       19.438413   0.000000   0.000000
     15         19.358554       19.721779   0.000000   0.000000
     16         21.431937       21.922074   0.000000   0.000000
     17         22.547254       23.044111   0.000000   0.000000
     18         26.858575       26.979251   0.000000   0.000000
     19         28.242117       28.586255   0.000000   0.000000
     20         34.668818       34.963205   0.000000   0.000000
     21         39.582544       39.510275   0.000000   0.000000
     22         42.644248       42.856271   0.000000   0.000000
     23         42.868402       42.919166   0.000000   0.000000
     24         44.760443       44.777990   0.000000   0.000000
     25         45.509214       46.397027   0.000000   0.000000
     26         45.976852       47.679566   0.000000   0.000000
     27         46.079885       47.899539   0.000000   0.000000
     28         47.526383       48.931140   0.000000   0.000000
 
  0.2500000E+00  0.2500000E+00  0.0000000E+00  0.5208333E-02
      1          4.967058        5.487018   1.000000   1.000000