    2    2  100    2
  0.1120975E+02  0.2519857E-09  0.2519857E-09  0.4077026E-09  0.5000000E-15
  1.000000000000000E-004
  CAR 
 Co-hcc                                  
     18     70     16
 
  0.0000000E+00  0.0000000E+00  0.0000000E+00  0.1250000E-02
      1          1.076433        1.079410   1.000000   1.000000
      2          4.794537        5.788510   1.000000   1.000000
      3          7.192175        8.899589   1.000000   1.000000
      4          7.212973        8.932217   1.000000   1.000000
      5          7.212975        8.932218   1.000000   1.000000
      6          7.506197        9.280112   1.000000   1.000000
      7          7.506198        9.280113   1.000000   1.000000
      8          7.837985        9.672090   1.000000   0.993758
      9          7.837985        9.681603   1.000000   0.987096
     10          8.878482        9.681604   1.000000   0.987095
     11          8.878483       10.840898   1.000000   0.000000
     12          9.736247       10.840899   0.752857   0.000000
     13         15.833913       16.889351   0.000000   0.000000
     14         31.505159       31.217839   0.000000   0.000000
     15         33.738619       34.109282   0.000000   0.000000
     16         33.738625       34.110162   0.000000   0.000000
 
  0.1000000E+00 -0.6938894E-17  0.0000000E+00  0.7500000E-02
      1          1.416841        1.421264   1.000000   1.000000
      2          4.992170        6.017224   1.000000   1.000000
      3          6.942075        8.599005   1.000000   1.000000
      4          7.366605        8.849585   1.000000   1.000000
      5          7.392707        9.102650   1.000000   1.000000
      6          7.470181        9.132613   1.000000   1.000000
      7          7.609172        9.221861   1.000000   1.000000
      8          7.641612        9.430162   1.000000   1.000000
      9          7.744409        9.571154   1.000000   1.000000
     10          8.060099        9.599554   1.000000   0.999997
     11          8.917270       10.887478   1.000000   0.000000
     12         11.021821       11.961614   0.000000   0.000000
     13         15.900549       16.920789   0.000000   0.000000
     14         28.778242       28.966775   0.000000   0.000000
     15         31.197926       31.538601   0.000000   0.000000
     16         31.636056       31.671094   0.000000   0.000000
 
  0.2000000E+00 -0.1387779E-16  0.0000000E+00  0.7500000E-02
      1          2.383741        2.403161   1.000000   1.000000
      2          5.420970        6.551841   1.000000   1.000000
      3          6.651518        7.918863   1.000000   1.000000
      4          6.747863        8.193837   1.000000   1.000000
      5          7.250081        8.929443   1.000000   1.000000
      6          7.528799        9.318856   1.000000   1.000000
      7          7.732002        9.389024   1.000000   1.000000
      8          7.787150        9.573056   1.000000   1.000000
      9          7.807567        9.579421   1.000000   1.000000
     10          8.009711        9.839703   1.000000   0.012459
     11          8.990528       10.974116   1.000000   0.000000
     12         12.944699       13.773188   0.000000   0.000000
     13         16.142157       17.050812   0.000000   0.000000
     14         24.191780       24.593060   0.000000   0.000000
     15         28.495556       28.802862   0.000000   0.000000
     16         30.512941       30.644822   0.000000   0.000000
 
  0.3000000E+00  0.2775558E-16  0.0000000E+00  0.7500000E-02
      1          3.741366        3.859603   1.000000   1.000000
      2          5.545291        6.845868   1.000000   1.000000
      3          6.030105        7.255581   1.000000   1.000000
      4          6.630820        7.947325   1.000000   1.000000
      5          7.262673        8.878523   1.000000   1.000000
      6          7.297361        9.050157   1.000000   1.000000
      7          7.515021        9.133607   1.000000   1.000000
      8          8.346626       10.196199   1.000000   0.000000
      9          8.427663       10.210306   1.000000   0.000000
     10          8.498749       10.387214   1.000000   0.000000
     11          9.048374       11.041331   1.000000   0.000000
     12         15.145508       15.860125   0.000000   0.000000
     13         16.531133       17.246038   0.000000   0.000000
     14         20.113934       20.688793   0.000000   0.000000
     15         26.307585       26.557500   0.000000   0.000000
     16         27.578986       27.801659   0.000000   0.000000
 
  0.4000000E+00  0.2775558E-16  0.0000000E+00  0.7500000E-02
      1          4.821586        5.353624   1.000000   1.000000
      2          5.341640        6.656837   1.000000   1.000000
      3          5.597700        6.868091   1.000000   1.000000
      4          6.989285        7.934872   1.000000   1.000000
      5          7.127446        8.853828   1.000000   1.000000
      6          7.352003        8.929805   1.000000   1.000000
      7          7.497777        9.125883   1.000000   1.000000
      8          8.820066       10.759913   1.000000   0.000000
      9          8.946326       10.896191   1.000000   0.000000
     10          9.079238       11.076611   1.000000   0.000000
     11          9.558553       11.172974   1.000000   0.000000
     12         15.138024       15.873558   0.000000   0.000000
     13         17.523397       18.100079   0.000000   0.000000
     14         18.914637       19.475457   0.000000   0.000000
     15         24.232050       24.626158   0.000000   0.000000
     16         24.836429       25.019280   0.000000   0.000000
 
  0.5000000E+00  0.0000000E+00  0.0000000E+00  0.3750000E-02
      1          5.169007        6.083449   1.000000   1.000000
      2          5.173516        6.437065   1.000000   1.000000
      3          5.454223        6.741587   1.000000   1.000000
      4          7.065491        8.029734   1.000000   1.000000
      5          7.290802        8.782389   1.000000   1.000000
      6          7.317731        8.852108   1.000000   1.000000
      7          7.601398        9.247301   1.000000   1.000000
      8          8.999033       10.966681   1.000000   0.000000
      9          9.088365       11.086931   1.000000   0.000000
     10          9.140165       11.124022   1.000000   0.000000
     11         10.986638       12.263748   0.000000   0.000000
     12         12.924046       13.948421   0.000000   0.000000
     13         19.217704       19.643103   0.000000   0.000000
     14         19.823304       20.216918   0.000000   0.000000
     15         22.219494       22.777574   0.000000   0.000000
     16         23.311072       23.894771   0.000000   0.000000
 
  0.1000000E+00  0.1000000E+00  0.0000000E+00  0.7500000E-02
      1          2.073169        2.084633   1.000000   1.000000
      2          5.322953        6.411881   1.000000   1.000000
      3          6.685256        8.158934   1.000000   1.000000
      4          7.014282        8.275341   1.000000   1.000000
      5          7.320566        9.023304   1.000000   1.000000
      6          7.490461        9.261819   1.000000   1.000000
      7          7.597810        9.362497   1.000000   1.000000
      8          7.679753        9.447736   1.000000   1.000000
      9          7.875638        9.579952   1.000000   1.000000
     10          7.949412        9.762216   1.000000   0.479654
     11          8.956623       10.933746   1.000000   0.000000
     12         12.403213       13.263476   0.000000   0.000000
     13         16.060453       17.007575   0.000000   0.000000
     14         26.362007       26.644809   0.000000   0.000000
     15         26.919004       27.293046   0.000000   0.000000
     16         33.255311       33.161812   0.000000   0.000000
 
  0.2000000E+00  0.1000000E+00  0.0000000E+00  0.1500000E-01
      1          3.264096        3.318046   1.000000   1.000000
      2          5.678788        6.903298   1.000000   1.000000
      3          6.294062        7.494621   1.000000   1.000000
      4          6.426045        7.882172   1.000000   1.000000
      5          7.238206        8.875440   1.000000   1.000000
      6          7.241199        8.952615   1.000000   1.000000
      7          7.695392        9.387003   1.000000   1.000000
      8          7.918590        9.715763   1.000000   0.896681
      9          8.216139       10.045185   1.000000   0.000000
     10          8.512827       10.348052   1.000000   0.000000
     11          8.997402       10.981392   1.000000   0.000000
     12         14.356091       15.120273   0.000000   0.000000
     13         16.461473       17.257439   0.000000   0.000000
     14         22.163212       22.628708   0.000000   0.000000
     15         24.730863       25.089595   0.000000   0.000000
     16         29.582922       29.690274   0.000000   0.000000
 
  0.3000000E+00  0.1000000E+00  0.0000000E+00  0.1500000E-01
      1          4.574744        4.851656   1.000000   1.000000
      2          5.573903        6.906832   1.000000   1.000000
      3          5.780041        7.041039   1.000000   1.000000
      4          6.563633        7.763261   1.000000   1.000000
      5          7.077984        8.750430   1.000000   1.000000
      6          7.395373        9.014195   1.000000   1.000000
      7          7.465130        9.107476   1.000000   1.000000
      8          8.429755       10.271707   1.000000   0.000000
      9          8.741531       10.646918   1.000000   0.000000
     10          9.025481       11.013769   1.000000   0.000000
     11          9.335424       11.099011   1.000000   0.000000
     12         16.554168       17.179763   0.000000   0.000000
     13         16.624974       17.274699   0.000000   0.000000
     14         18.975328       19.590622   0.000000   0.000000
     15         23.203611       23.533519   0.000000   0.000000
     16         26.012533       26.306115   0.000000   0.000000
 
  0.4000000E+00  0.1000000E+00  0.0000000E+00  0.1500000E-01
      1          5.220993        6.041456   1.000000   1.000000
      2          5.375296        6.653788   1.000000   1.000000
      3          5.520837        6.818543   1.000000   1.000000
      4          6.989860        7.838629   1.000000   1.000000
      5          7.022315        8.700823   1.000000   1.000000
      6          7.286513        8.867134   1.000000   1.000000
      7          7.596284        9.247766   1.000000   1.000000
      8          8.905860       10.835439   1.000000   0.000000
      9          9.017686       10.971839   1.000000   0.000000
     10          9.037535       11.027373   1.000000   0.000000
     11         10.766134       12.141053   0.000000   0.000000
     12         13.974176       14.860984   0.000000   0.000000
     13         18.951214       19.450364   0.000000   0.000000
     14         19.673072       20.122707   0.000000   0.000000
     15         22.229678       22.547190   0.000000   0.000000
     16         23.039907       23.517720   0.000000   0.000000
 
  0.2000000E+00  0.2000000E+00  0.0000000E+00  0.7500000E-02
      1          4.497009        4.671294   1.000000   1.000000
      2          5.897162        7.154621   1.000000   1.000000
      3          5.938260        7.223522   1.000000   1.000000
      4          6.105835        7.477741   1.000000   1.000000
      5          6.990471        8.644178   1.000000   1.000000
      6          7.359626        8.977607   1.000000   1.000000
      7          7.548973        9.210899   1.000000   1.000000
      8          8.106899        9.937430   1.000000   0.000000
      9          8.746567       10.642464   1.000000   0.000000
     10          8.973599       10.953458   1.000000   0.000000
     11          9.364914       11.131695   1.000000   0.000000
     12         16.324923       17.006951   0.000000   0.000000
     13         17.117681       17.749812   0.000000   0.000000
     14         20.351140       20.848013   0.000000   0.000000
     15         20.861736       21.334536   0.000000   0.000000
     16         28.076604       28.141934   0.000000   0.000000
 
  0.3000000E+00  0.2000000E+00  0.0000000E+00  0.1500000E-01
      1          5.450141        6.036543   1.000000   1.000000
      2          5.645482        6.963014   1.000000   1.000000
      3          5.756898        7.058373   1.000000   1.000000
      4          6.334934        7.459877   1.000000   1.000000
      5          6.906336        8.523646   1.000000   1.000000
      6          7.310969        8.918567   1.000000   1.000000
      7          7.594233        9.247281   1.000000   1.000000
      8          8.468504       10.339549   1.000000   0.000000
      9          8.952468       10.928833   1.000000   0.000000
     10          9.021460       10.968065   1.000000   0.000000
     11         10.703446       12.181260   0.000000   0.000000
     12         16.125041       16.781169   0.000000   0.000000
     13         18.645800       19.223161   0.000000   0.000000
     14         18.781650       19.298886   0.000000   0.000000
     15         20.032555       20.485709   0.000000   0.000000
     16         24.936362       25.291481   0.000000   0.000000
 
  0.4000000E+00  0.2000000E+00  0.0000000E+00  0.7500000E-02
      1          5.560743        6.628875   1.000000   1.000000
      2          5.648652        6.903961   1.000000   1.000000
      3          5.649210        6.911818   1.000000   1.000000
      4          6.620042        7.540326   1.000000   1.000000
      5          6.935537        8.566239   1.000000   1.000000
      6          7.158068        8.713858   1.000000   1.000000
      7          7.710810        9.391074   1.000000   1.000000
      8          8.788722       10.700379   1.000000   0.000000
      9          8.944303       10.917757   1.000000   0.000000
     10          8.972164       10.919189   1.000000   0.000000
     11         12.379954       13.400614   0.000000   0.000000
     12         13.695482       14.685692   0.000000   0.000000
     13         18.774448       19.237620   0.000000   0.000000
     14         20.512620       20.966200   0.000000   0.000000
     15         20.794391       21.180398   0.000000   0.000000
     16         22.731196       23.237092   0.000000   0.000000
 
  0.3000000E+00  0.3000000E+00  0.0000000E+00  0.7500000E-02
      1          5.605690        6.873693   1.000000   1.000000
      2          5.844049        6.977765   1.000000   1.000000
      3          5.997321        7.199409   1.000000   1.000000
      4          6.228558        7.250566   1.000000   1.000000
      5          6.900642        8.476936   1.000000   1.000000
      6          7.085221        8.653520   1.000000   1.000000
      7          7.797450        9.485809   1.000000   1.000000
      8          8.637420       10.537949   1.000000   0.000000
      9          8.898048       10.866077   1.000000   0.000000
     10          8.932568       10.870925   1.000000   0.000000
     11         12.761549       13.804334   0.000000   0.000000
     12         15.685792       16.367984   0.000000   0.000000
     13         15.700156       16.400151   0.000000   0.000000
     14         21.041124       21.535018   0.000000   0.000000
     15         21.259533       21.660348   0.000000   0.000000
     16         23.821294       24.256202   0.000000   0.000000
 
  0.0000000E+00  0.0000000E+00  0.1250000E+00  0.2500000E-02
      1          1.230103        1.233599   1.000000   1.000000
      2          4.762506        5.665118   1.000000   1.000000
      3          7.154321        8.849897   1.000000   1.000000
      4          7.173581        8.890810   1.000000   1.000000
      5          7.173582        8.890811   1.000000   1.000000
      6          7.466065        9.233596   1.000000   1.000000
      7          7.466067        9.233597   1.000000   1.000000
      8          7.929952        9.288021   1.000000   1.000000
      9          7.929953        9.782924   1.000000   0.262148
     10          8.870283        9.782925   1.000000   0.262139
     11          8.870284       10.833625   1.000000   0.000000
     12          9.116024       10.833627   1.000000   0.000000
     13         16.762523       17.673461   0.000000   0.000000
     14         31.455826       31.140933   0.000000   0.000000
     15         33.524611       33.526506   0.000000   0.000000
     16         33.880764       34.019001   0.000000   0.000000
 
  0.1000000E+00 -0.6938894E-17  0.1250000E+00  0.1500000E-01
      1          1.567193        1.572620   1.000000   1.000000
      2          4.972110        5.905993   1.000000   1.000000
      3          6.944743        8.595614   1.000000   1.000000
      4          7.289853        8.604314   1.000000   1.000000
      5          7.309127        9.016504   1.000000   1.000000
      6          7.313338        9.043006   1.000000   1.000000
      7          7.594198        9.241659   1.000000   1.000000
      8          7.745002        9.374036   1.000000   1.000000
      9          7.865056        9.704172   1.000000   0.944163
     10          8.026638        9.730995   1.000000   0.797309
     11          8.903499       10.873369   1.000000   0.000000
     12         10.439261       11.668454   0.000000   0.000000
     13         16.901210       17.771621   0.000000   0.000000
     14         28.881668       29.053523   0.000000   0.000000
     15         31.353285       31.612314   0.000000   0.000000
     16         31.604149       31.691838   0.000000   0.000000
 
  0.2000000E+00 -0.1387779E-16  0.1250000E+00  0.1500000E-01
      1          2.519958        2.543727   1.000000   1.000000
      2          5.435139        6.481572   1.000000   1.000000
      3          6.616845        7.786086   1.000000   1.000000
      4          6.684629        8.220419   1.000000   1.000000
      5          7.186986        8.879921   1.000000   1.000000
      6          7.492540        9.239510   1.000000   1.000000
      7          7.612225        9.268217   1.000000   1.000000
      8          7.860913        9.658173   1.000000   0.998084
      9          7.984316        9.775499   1.000000   0.334793
     10          7.992331        9.827074   1.000000   0.029683
     11          8.965608       10.946328   1.000000   0.000000
     12         12.043927       13.102726   0.000000   0.000000
     13         17.379289       18.131981   0.000000   0.000000
     14         24.326115       24.723233   0.000000   0.000000
     15         28.681252       28.991510   0.000000   0.000000
     16         29.829142       29.974035   0.000000   0.000000
 
  0.3000000E+00  0.2775558E-16  0.1250000E+00  0.1500000E-01
      1          3.830417        3.971079   1.000000   1.000000
      2          5.577151        6.816655   1.000000   1.000000
      3          6.002084        7.217050   1.000000   1.000000
      4          6.610894        7.976717   1.000000   1.000000
      5          7.176655        8.771468   1.000000   1.000000
      6          7.338386        9.094263   1.000000   1.000000
      7          7.644779        9.195866   1.000000   1.000000
      8          8.365251       10.222251   1.000000   0.000000
      9          8.421219       10.227932   1.000000   0.000000
     10          8.456151       10.342924   1.000000   0.000000
     11          9.016182       11.003779   1.000000   0.000000
     12         13.695448       14.575300   0.000000   0.000000
     13         18.185472       18.785216   0.000000   0.000000
     14         20.287197       20.849892   0.000000   0.000000
     15         26.309196       26.643038   0.000000   0.000000
     16         26.518915       26.776961   0.000000   0.000000
 
  0.4000000E+00  0.2775558E-16  0.1250000E+00  0.1500000E-01
      1          4.778688        5.385198   1.000000   1.000000
      2          5.341286        6.615364   1.000000   1.000000
      3          5.758770        6.973057   1.000000   1.000000
      4          6.611941        7.817002   1.000000   1.000000
      5          7.186380        8.918646   1.000000   1.000000
      6          7.491133        9.062262   1.000000   1.000000
      7          7.842926        9.204397   1.000000   1.000000
      8          8.821162       10.764859   1.000000   0.000000
      9          8.875915       10.815959   1.000000   0.000000
     10          9.065139       11.053506   1.000000   0.000000
     11          9.481300       11.100429   1.000000   0.000000
     12         14.488181       15.176580   0.000000   0.000000
     13         17.201760       17.966177   0.000000   0.000000
     14         19.920930       20.350573   0.000000   0.000000
     15         23.259275       23.768219   0.000000   0.000000
     16         25.067043       25.263071   0.000000   0.000000
 
  0.5000000E+00  0.0000000E+00  0.1250000E+00  0.7500000E-02
      1          4.980708        5.981698   1.000000   1.000000
      2          5.199082        6.448008   1.000000   1.000000
      3          5.745703        6.968234   1.000000   1.000000
      4          6.638280        7.726635   1.000000   1.000000
      5          7.129228        8.852707   1.000000   1.000000
      6          7.604300        9.218849   1.000000   1.000000
      7          8.068210        9.304078   1.000000   1.000000
      8          8.947126       10.916092   1.000000   0.000000
      9          9.051897       11.031849   1.000000   0.000000
     10          9.136025       11.119355   1.000000   0.000000
     11         10.888720       12.096541   0.000000   0.000000
     12         12.841355       13.828075   0.000000   0.000000
     13         18.620113       19.155730   0.000000   0.000000
     14         18.959404       19.511808   0.000000   0.000000
     15         23.365700       23.788703   0.000000   0.000000
     16         24.225812       24.712620   0.000000   0.000000
 
  0.1000000E+00  0.1000000E+00  0.1250000E+00  0.1500000E-01
      1          2.215099        2.229293   1.000000   1.000000
      2          5.327409        6.327763   1.000000   1.000000
      3          6.703041        7.993938   1.000000   1.000000
      4          6.843444        8.297380   1.000000   1.000000
      5          7.308024        9.031102   1.000000   1.000000
      6          7.386149        9.067720   1.000000   1.000000
      7          7.586498        9.308975   1.000000   1.000000
      8          7.736432        9.522587   1.000000   1.000000
      9          7.967809        9.744843   1.000000   0.670166
     10          7.977475        9.793554   1.000000   0.174278
     11          8.938221       10.912651   1.000000   0.000000
     12         11.609285       12.710469   0.000000   0.000000
     13         17.215224       18.006627   0.000000   0.000000
     14         26.482251       26.758180   0.000000   0.000000
     15         27.065936       27.437995   0.000000   0.000000
     16         32.105696       32.116193   0.000000   0.000000
 
  0.2000000E+00  0.1000000E+00  0.1250000E+00  0.3000000E-01
      1          3.379287        3.444477   1.000000   1.000000
      2          5.720584        6.875869   1.000000   1.000000
      3          6.202311        7.399566   1.000000   1.000000
      4          6.462232        7.918414   1.000000   1.000000
      5          7.123205        8.787771   1.000000   1.000000
      6          7.343925        9.006362   1.000000   1.000000
      7          7.617717        9.314390   1.000000   1.000000
      8          7.964347        9.769118   1.000000   0.402748
      9          8.289995       10.122050   1.000000   0.000000
     10          8.466365       10.311126   1.000000   0.000000
     11          8.987814       10.961182   1.000000   0.000000
     12         13.148933       14.108190   0.000000   0.000000
     13         17.949282       18.602898   0.000000   0.000000
     14         22.307219       22.770082   0.000000   0.000000
     15         24.885556       25.246616   0.000000   0.000000
     16         28.444888       28.663867   0.000000   0.000000
 
  0.3000000E+00  0.1000000E+00  0.1250000E+00  0.3000000E-01
      1          4.605188        4.930627   1.000000   1.000000
      2          5.606537        6.873174   1.000000   1.000000
      3          5.809489        7.062782   1.000000   1.000000
      4          6.497653        7.790937   1.000000   1.000000
      5          7.114646        8.724681   1.000000   1.000000
      6          7.411464        9.070099   1.000000   1.000000
      7          7.556103        9.108115   1.000000   1.000000
      8          8.415506       10.264764   1.000000   0.000000
      9          8.782999       10.690836   1.000000   0.000000
     10          8.901905       10.831823   1.000000   0.000000
     11          9.369731       11.179887   1.000000   0.000000
     12         14.695479       15.435019   0.000000   0.000000
     13         18.058590       18.717305   0.000000   0.000000
     14         19.701283       20.211425   0.000000   0.000000
     15         23.346983       23.694039   0.000000   0.000000
     16         24.882382       25.271608   0.000000   0.000000
 
  0.4000000E+00  0.1000000E+00  0.1250000E+00  0.3000000E-01
      1          5.080705        5.997937   1.000000   1.000000
      2          5.376837        6.639973   1.000000   1.000000
      3          5.793108        6.998269   1.000000   1.000000
      4          6.567227        7.682478   1.000000   1.000000
      5          7.054459        8.728914   1.000000   1.000000
      6          7.622344        9.074548   1.000000   1.000000
      7          7.726147        9.271747   1.000000   1.000000
      8          8.867120       10.801776   1.000000   0.000000
      9          8.961044       10.919135   1.000000   0.000000
     10          9.044473       11.003977   1.000000   0.000000
     11         10.756738       12.095164   0.000000   0.000000
     12         13.836882       14.672779   0.000000   0.000000
     13         17.933273       18.587977   0.000000   0.000000
     14         20.030424       20.466919   0.000000   0.000000
     15         22.357888       22.720170   0.000000   0.000000
     16         23.226506       23.664816   0.000000   0.000000
 
  0.2000000E+00  0.2000000E+00  0.1250000E+00  0.1500000E-01
      1          4.561540        4.766713   1.000000   1.000000
      2          5.814761        7.069122   1.000000   1.000000
      3          6.050353        7.289514   1.000000   1.000000
      4          6.131960        7.515864   1.000000   1.000000
      5          7.031546        8.642054   1.000000   1.000000
      6          7.345024        8.971825   1.000000   1.000000
      7          7.484085        9.143168   1.000000   1.000000
      8          8.134933        9.966420   1.000000   0.000000
      9          8.801064       10.704850   1.000000   0.000000
     10          8.839197       10.773173   1.000000   0.000000
     11          9.432202       11.230597   1.000000   0.000000
     12         14.652947       15.448434   0.000000   0.000000
     13         18.971713       19.525351   0.000000   0.000000
     14         20.500557       20.998051   0.000000   0.000000
     15         21.056399       21.524983   0.000000   0.000000
     16         26.905848       27.119653   0.000000   0.000000
 
  0.3000000E+00  0.2000000E+00  0.1250000E+00  0.3000000E-01
      1          5.375310        6.068308   1.000000   1.000000
      2          5.736910        6.941611   1.000000   1.000000
      3          5.812129        7.111935   1.000000   1.000000
      4          6.300315        7.521264   1.000000   1.000000
      5          6.981700        8.546681   1.000000   1.000000
      6          7.287637        8.849561   1.000000   1.000000
      7          7.609751        9.262234   1.000000   1.000000
      8          8.475594       10.348652   1.000000   0.000000
      9          8.837602       10.790150   1.000000   0.000000
     10          9.058494       11.013133   1.000000   0.000000
     11         10.767253       12.231601   0.000000   0.000000
     12         15.675959       16.302510   0.000000   0.000000
     13         17.718939       18.403554   0.000000   0.000000
     14         19.534305       20.033767   0.000000   0.000000
     15         20.913262       21.326118   0.000000   0.000000
     16         23.928718       24.372038   0.000000   0.000000
 
  0.4000000E+00  0.2000000E+00  0.1250000E+00  0.1500000E-01
      1          5.402577        6.534382   1.000000   1.000000
      2          5.694879        6.949461   1.000000   1.000000
      3          5.906901        7.113682   1.000000   1.000000
      4          6.424912        7.465789   1.000000   1.000000
      5          6.911880        8.526794   1.000000   1.000000
      6          7.307029        8.760678   1.000000   1.000000
      7          7.740131        9.417919   1.000000   1.000000
      8          8.792153       10.705338   1.000000   0.000000
      9          8.818176       10.768203   1.000000   0.000000
     10          9.003464       10.954856   1.000000   0.000000
     11         12.475502       13.467090   0.000000   0.000000
     12         13.699240       14.663699   0.000000   0.000000
     13         18.717452       19.215831   0.000000   0.000000
     14         19.771791       20.286058   0.000000   0.000000
     15         20.013788       20.513790   0.000000   0.000000
     16         23.899460       24.317063   0.000000   0.000000
 
  0.3000000E+00  0.3000000E+00  0.1250000E+00  0.1500000E-01
      1          5.630353        6.908867   1.000000   1.000000
      2          5.862537        6.974804   1.000000   1.000000
      3          6.047728        7.267370   1.000000   1.000000
      4          6.200381        7.286560   1.000000   1.000000
      5          6.948260        8.474750   1.000000   1.000000
      6          7.036045        8.575615   1.000000   1.000000