 vasp.6.3.2 27Jun22 (build Aug 12 2022 00:53:59) complex                        
  
 executed on               tv2STD date 2024.11.30  17:13:40
 running   24 mpi-ranks, with    1 threads/rank
 distrk:  each k-point on   24 cores,    1 groups
 distr:  one band on NCORE=   6 cores,    4 groups


--------------------------------------------------------------------------------------------------------


 INCAR:
   SYSTEM = Co-hcc
   NWRITE = 2    write-flag
   ISTART = 0    job   : 0-new, 1-cont, 2-samecut
   ICHARG = 2    charge: 0-wave, 1-file, 2-atom, >10-const
   INIWAV = 1    electr: 0-lowe 1-rand  2-diag
   ENCUT = 400     energy cutoff in eV
   PREC = Accurate      normal | accurate
   ADDGRID = .FALSE.  (use fine grid)
   NELM = 100     number of ELM steps
   EDIFF = 1E-06    energy stopping-criterion for ELM
   LREAL = .FALSE.      real-space projection (.FALSE., .TRUE., On, Auto)
   ALGO = Normal     Normal, Fast, Very_Fast
   LWAVE = .TRUE.
   LCHARG = .TRUE.
   NSW = 100       max number of geometry steps
   IBRION = 2     ionic relax: 0-MD, 1-quasi-Newton, 2-CG, 3-Damped MD
   EDIFFG = -0.02  force (eV/A) stopping-criterion for geometry steps
   ISIF = 2     (1:force\=y stress\=trace only ions\=y shape\=n volume\=n)
   ISYM = 1     (1-use symmetry, 0-no symmetry)
   ISMEAR = 0     (-1-Fermi, 1-Methfessel/Paxton)
   SIGMA = 0.05   broadening in eV
   LORBIT = 11 magnetic props in OUTCAR should be on
   NPAR = 4
   ISPIN = 2
   MAGMOM = 2*3

 POTCAR:    PAW_PBE Co 02Aug2007                  
 POTCAR:    PAW_PBE Co 02Aug2007                  
   SHA256 =  0e690c60710354995174544f52f9f2c30879afabeffe3b3fbd4001cb294e56d4 Co/POTCAR             
   COPYR  = (c) Copyright 02Aug2007 Georg Kresse                                                    
   COPYR  = This file is part of the software VASP. Any use, copying, and all other rights are regul
   COPYR  = If you do not have a valid VASP license, you may not use, copy or distribute this file. 
   VRHFIN =Co: d8 s1                                                                                
   LEXCH  = PE                                                                                      
   EATOM  =   813.3670 eV,   59.7808 Ry                                                             
                                                                                                    
   TITEL  = PAW_PBE Co 02Aug2007                                                                    
   LULTRA =        F    use ultrasoft PP ?                                                          
   IUNSCR =        1    unscreen: 0-lin 1-nonlin 2-no                                               
   RPACOR =    2.000    partial core radius                                                         
   POMASS =   58.933; ZVAL   =    9.000    mass and valenz                                          
   RCORE  =    2.300    outmost cutoff radius                                                       
   RWIGS  =    2.460; RWIGS  =    1.302    wigner-seitz radius (au A)                               
   ENMAX  =  267.968; ENMIN  =  200.976 eV                                                          
   RCLOC  =    1.203    cutoff for local pot                                                        
   LCOR   =        T    correct aug charges                                                         
   LPAW   =        T    paw PP                                                                      
   EAUG   =  477.818                                                                                
   DEXC   =    0.000                                                                                
   RMAX   =    2.360    core radius for proj-oper                                                   
   RAUG   =    1.300    factor for augmentation sphere                                              
   RDEP   =    2.393    radius for radial grids                                                     
   RDEPT  =    1.864    core radius for aug-charge                                                  
                                                                                                    
   Atomic configuration                                                                             
    9 entries                                                                                       
     n  l   j            E        occ.                                                              
     1  0  0.50     -7587.6674   2.0000                                                             
     2  0  0.50      -893.6084   2.0000                                                             
     2  1  1.50      -764.5805   6.0000                                                             
     3  0  0.50       -97.5973   2.0000                                                             
     3  1  1.50       -60.9648   6.0000                                                             
     3  2  2.50        -4.2382   8.0000                                                             
     4  0  0.50        -4.3746   1.0000                                                             
     4  1  1.50        -4.0817   0.0000                                                             
     4  3  2.50        -1.3606   0.0000                                                             
   Description                                                                                      
     l       E           TYP  RCUT    TYP  RCUT                                                     
     2     -4.2382362     23  2.300                                                                 
     2     -5.5988188     23  2.300                                                                 
     0     -4.3745797     23  2.300                                                                 
     0      5.7660125     23  2.300                                                                 
     1     -2.7211652     23  2.300                                                                 
     1     16.9860234     23  2.300                                                                 
  local pseudopotential read in
  partial core-charges read in
  partial kinetic energy density read in
  atomic valenz-charges read in
  non local Contribution for L=           2  read in
    real space projection operators read in
  non local Contribution for L=           2  read in
    real space projection operators read in
  non local Contribution for L=           0  read in
    real space projection operators read in
  non local Contribution for L=           0  read in
    real space projection operators read in
  non local Contribution for L=           1  read in
    real space projection operators read in
  non local Contribution for L=           1  read in
    real space projection operators read in
    PAW grid and wavefunctions read in
 
   number of l-projection  operators is LMAX  =           6
   number of lm-projection operators is LMMAX =          18
 
  PAW_PBE Co 02Aug2007                  :
 energy of atom  1       EATOM= -813.3670
 kinetic energy error for atom=    0.0093 (will be added to EATOM!!)
 
 
 POSCAR: Co
  positions in cartesian coordinates
  No initial velocities read in
 exchange correlation table for  LEXCH =        8
   RHO(1)=    0.500       N(1)  =     2000
   RHO(2)=  100.500       N(2)  =     4000
 


--------------------------------------------------------------------------------------------------------


 ion  position               nearest neighbor table
   1  0.000  0.000  0.000-   2 2.50   2 2.50   2 2.50   2 2.50   2 2.50   2 2.50
   2  0.333  0.667  0.500-   1 2.50   1 2.50   1 2.50   1 2.50   1 2.50   1 2.50
 
  LATTYP: Found a hexagonal cell.
 ALAT       =     2.5198566633
 C/A-ratio  =     1.6179593006
  
  Lattice vectors:
  
 A1 = (   2.5198566633,   0.0000000000,   0.0000000000)
 A2 = (  -1.2599283316,   2.1822598843,   0.0000000000)
 A3 = (   0.0000000000,   0.0000000000,   4.0770255246)


Analysis of symmetry for initial positions (statically):
=====================================================================
 Subroutine PRICEL returns:
 Original cell was already a primitive cell.
 

 Routine SETGRP: Setting up the symmetry group for a 
 hexagonal supercell.


 Subroutine GETGRP returns: Found 24 space group operations
 (whereof 12 operations were pure point group operations)
 out of a pool of 24 trial point group operations.


The static configuration has the point symmetry D_3h.
 The point group associated with its full space group is D_6h.


Analysis of symmetry for dynamics (positions and initial velocities):
=====================================================================
 Subroutine PRICEL returns:
 Original cell was already a primitive cell.
 

 Routine SETGRP: Setting up the symmetry group for a 
 hexagonal supercell.


 Subroutine GETGRP returns: Found 24 space group operations
 (whereof 12 operations were pure point group operations)
 out of a pool of 24 trial point group operations.


The dynamic configuration has the point symmetry D_3h.
 The point group associated with its full space group is D_6h.


Analysis of structural, dynamic, and magnetic symmetry:
=====================================================================
 Subroutine PRICEL returns:
 Original cell was already a primitive cell.
 

 Routine SETGRP: Setting up the symmetry group for a 
 hexagonal supercell.


 Subroutine GETGRP returns: Found 24 space group operations
 (whereof 12 operations were pure point group operations)
 out of a pool of 24 trial point group operations.


The overall configuration has the point symmetry D_3h.
 The point group associated with its full space group is D_6h.


 Subroutine INISYM returns: Found 24 space group operations
 (whereof 12 operations are pure point group operations),
 and found     1 'primitive' translations


----------------------------------------------------------------------------------------

                                     Primitive cell                                     

  volume of cell :      22.4195

  direct lattice vectors                    reciprocal lattice vectors
     2.519856663  0.000000000  0.000000000     0.396847969  0.229120282  0.000000000
    -1.259928332  2.182259884  0.000000000     0.000000000  0.458240564  0.000000000
     0.000000000  0.000000000  4.077025525     0.000000000  0.000000000  0.245276855

  length of vectors
     2.519856663  2.519856663  4.077025525     0.458240564  0.458240564  0.245276855

  position of ions in fractional coordinates (direct lattice)
     0.000000000  0.000000000  0.000000000
     0.333333333  0.666666667  0.500000000

  ion indices of the primitive-cell ions
   primitive index   ion index
                 1           1
                 2           2

----------------------------------------------------------------------------------------

 
 
 KPOINTS: Automatic mesh                          

Automatic generation of k-mesh.
 Grid dimensions read from file:
 generate k-points for:   10   10    8

 Generating k-lattice:

  Cartesian coordinates                     Fractional coordinates (reciprocal lattice)
     0.039684797  0.022912028  0.000000000     0.100000000 -0.000000000  0.000000000
     0.000000000  0.045824056  0.000000000     0.000000000  0.100000000  0.000000000
     0.000000000  0.000000000  0.030659607     0.000000000  0.000000000  0.125000000

  Length of vectors
     0.045824056  0.045824056  0.030659607

  Shift w.r.t. Gamma in fractional coordinates (k-lattice)
     0.000000000  0.000000000  0.000000000

 
 Subroutine IBZKPT returns following result:
 ===========================================
 
 Found     70 irreducible k-points:
 
 Following reciprocal coordinates:
            Coordinates               Weight
  0.000000  0.000000  0.000000      1.000000
  0.100000 -0.000000  0.000000      6.000000
  0.200000 -0.000000  0.000000      6.000000
  0.300000  0.000000  0.000000      6.000000
  0.400000  0.000000  0.000000      6.000000
  0.500000  0.000000  0.000000      3.000000
  0.100000  0.100000  0.000000      6.000000
  0.200000  0.100000  0.000000     12.000000
  0.300000  0.100000  0.000000     12.000000
  0.400000  0.100000  0.000000     12.000000
  0.200000  0.200000  0.000000      6.000000
  0.300000  0.200000  0.000000     12.000000
  0.400000  0.200000  0.000000      6.000000
  0.300000  0.300000  0.000000      6.000000
  0.000000  0.000000  0.125000      2.000000
  0.100000 -0.000000  0.125000     12.000000
  0.200000 -0.000000  0.125000     12.000000
  0.300000  0.000000  0.125000     12.000000
  0.400000  0.000000  0.125000     12.000000
  0.500000  0.000000  0.125000      6.000000
  0.100000  0.100000  0.125000     12.000000
  0.200000  0.100000  0.125000     24.000000
  0.300000  0.100000  0.125000     24.000000
  0.400000  0.100000  0.125000     24.000000
  0.200000  0.200000  0.125000     12.000000
  0.300000  0.200000  0.125000     24.000000
  0.400000  0.200000  0.125000     12.000000
  0.300000  0.300000  0.125000     12.000000
  0.000000  0.000000  0.250000      2.000000
  0.100000 -0.000000  0.250000     12.000000
  0.200000 -0.000000  0.250000     12.000000
  0.300000  0.000000  0.250000     12.000000
  0.400000  0.000000  0.250000     12.000000
  0.500000  0.000000  0.250000      6.000000
  0.100000  0.100000  0.250000     12.000000
  0.200000  0.100000  0.250000     24.000000
  0.300000  0.100000  0.250000     24.000000
  0.400000  0.100000  0.250000     24.000000
  0.200000  0.200000  0.250000     12.000000
  0.300000  0.200000  0.250000     24.000000
  0.400000  0.200000  0.250000     12.000000
  0.300000  0.300000  0.250000     12.000000
  0.000000  0.000000  0.375000      2.000000
  0.100000 -0.000000  0.375000     12.000000
  0.200000 -0.000000  0.375000     12.000000
  0.300000  0.000000  0.375000     12.000000
  0.400000  0.000000  0.375000     12.000000
  0.500000  0.000000  0.375000      6.000000
  0.100000  0.100000  0.375000     12.000000
  0.200000  0.100000  0.375000     24.000000
  0.300000  0.100000  0.375000     24.000000
  0.400000  0.100000  0.375000     24.000000
  0.200000  0.200000  0.375000     12.000000
  0.300000  0.200000  0.375000     24.000000
  0.400000  0.200000  0.375000     12.000000
  0.300000  0.300000  0.375000     12.000000
  0.000000  0.000000  0.500000      1.000000
  0.100000 -0.000000  0.500000      6.000000
  0.200000 -0.000000  0.500000      6.000000
  0.300000  0.000000  0.500000      6.000000
  0.400000  0.000000  0.500000      6.000000
  0.500000  0.000000  0.500000      3.000000
  0.100000  0.100000  0.500000      6.000000
  0.200000  0.100000  0.500000     12.000000
  0.300000  0.100000  0.500000     12.000000
  0.400000  0.100000  0.500000     12.000000
  0.200000  0.200000  0.500000      6.000000
  0.300000  0.200000  0.500000     12.000000
  0.400000  0.200000  0.500000      6.000000
  0.300000  0.300000  0.500000      6.000000
 
 Following cartesian coordinates:
            Coordinates               Weight
  0.000000  0.000000  0.000000      1.000000
  0.039685  0.022912  0.000000      6.000000
  0.079370  0.045824  0.000000      6.000000
  0.119054  0.068736  0.000000      6.000000
  0.158739  0.091648  0.000000      6.000000
  0.198424  0.114560  0.000000      3.000000
  0.039685  0.068736  0.000000      6.000000
  0.079370  0.091648  0.000000     12.000000
  0.119054  0.114560  0.000000     12.000000
  0.158739  0.137472  0.000000     12.000000
  0.079370  0.137472  0.000000      6.000000
  0.119054  0.160384  0.000000     12.000000
  0.158739  0.183296  0.000000      6.000000
  0.119054  0.206208  0.000000      6.000000
  0.000000  0.000000  0.030660      2.000000
  0.039685  0.022912  0.030660     12.000000
  0.079370  0.045824  0.030660     12.000000
  0.119054  0.068736  0.030660     12.000000
  0.158739  0.091648  0.030660     12.000000
  0.198424  0.114560  0.030660      6.000000
  0.039685  0.068736  0.030660     12.000000
  0.079370  0.091648  0.030660     24.000000
  0.119054  0.114560  0.030660     24.000000
  0.158739  0.137472  0.030660     24.000000
  0.079370  0.137472  0.030660     12.000000
  0.119054  0.160384  0.030660     24.000000
  0.158739  0.183296  0.030660     12.000000
  0.119054  0.206208  0.030660     12.000000
  0.000000  0.000000  0.061319      2.000000
  0.039685  0.022912  0.061319     12.000000
  0.079370  0.045824  0.061319     12.000000
  0.119054  0.068736  0.061319     12.000000
  0.158739  0.091648  0.061319     12.000000
  0.198424  0.114560  0.061319      6.000000
  0.039685  0.068736  0.061319     12.000000
  0.079370  0.091648  0.061319     24.000000
  0.119054  0.114560  0.061319     24.000000
  0.158739  0.137472  0.061319     24.000000
  0.079370  0.137472  0.061319     12.000000
  0.119054  0.160384  0.061319     24.000000
  0.158739  0.183296  0.061319     12.000000
  0.119054  0.206208  0.061319     12.000000
  0.000000  0.000000  0.091979      2.000000
  0.039685  0.022912  0.091979     12.000000
  0.079370  0.045824  0.091979     12.000000
  0.119054  0.068736  0.091979     12.000000
  0.158739  0.091648  0.091979     12.000000
  0.198424  0.114560  0.091979      6.000000
  0.039685  0.068736  0.091979     12.000000
  0.079370  0.091648  0.091979     24.000000
  0.119054  0.114560  0.091979     24.000000
  0.158739  0.137472  0.091979     24.000000
  0.079370  0.137472  0.091979     12.000000
  0.119054  0.160384  0.091979     24.000000
  0.158739  0.183296  0.091979     12.000000
  0.119054  0.206208  0.091979     12.000000
  0.000000  0.000000  0.122638      1.000000
  0.039685  0.022912  0.122638      6.000000
  0.079370  0.045824  0.122638      6.000000
  0.119054  0.068736  0.122638      6.000000
  0.158739  0.091648  0.122638      6.000000
  0.198424  0.114560  0.122638      3.000000
  0.039685  0.068736  0.122638      6.000000
  0.079370  0.091648  0.122638     12.000000
  0.119054  0.114560  0.122638     12.000000
  0.158739  0.137472  0.122638     12.000000
  0.079370  0.137472  0.122638      6.000000
  0.119054  0.160384  0.122638     12.000000
  0.158739  0.183296  0.122638      6.000000
  0.119054  0.206208  0.122638      6.000000
 


--------------------------------------------------------------------------------------------------------




 Dimension of arrays:
   k-points           NKPTS =     70   k-points in BZ     NKDIM =     70   number of bands    NBANDS=     16
   number of dos      NEDOS =    301   number of ions     NIONS =      2
   non local maximal  LDIM  =      6   non local SUM 2l+1 LMDIM =     18
   total plane-waves  NPLWV =   7168
   max r-space proj   IRMAX =      1   max aug-charges    IRDMAX=  12807
   dimension x,y,z NGX =    16 NGY =   16 NGZ =   28
   dimension x,y,z NGXF=    32 NGYF=   32 NGZF=   56
   support grid    NGXF=    32 NGYF=   32 NGZF=   56
   ions per type =               2
   NGX,Y,Z   is equivalent  to a cutoff of  10.56, 10.56, 11.42 a.u.
   NGXF,Y,Z  is equivalent  to a cutoff of  21.11, 21.11, 22.83 a.u.

 SYSTEM =  Co-hcc                                  
 POSCAR =  Co                                      

 Startparameter for this run:
   NWRITE =      2    write-flag & timer
   PREC   = accura    normal or accurate (medium, high low for compatibility)
   ISTART =      0    job   : 0-new  1-cont  2-samecut
   ICHARG =      2    charge: 1-file 2-atom 10-const
   ISPIN  =      2    spin polarized calculation?
   LNONCOLLINEAR =      F non collinear calculations
   LSORBIT =      F    spin-orbit coupling
   INIWAV =      1    electr: 0-lowe 1-rand  2-diag
   LASPH  =      F    aspherical Exc in radial PAW
 Electronic Relaxation 1
   ENCUT  =  400.0 eV  29.40 Ry    5.42 a.u.   4.11  4.11  6.65*2*pi/ulx,y,z
   ENINI  =  400.0     initial cutoff
   ENAUG  =  477.8 eV  augmentation charge cutoff
   NELM   =    100;   NELMIN=  2; NELMDL= -5     # of ELM steps 
   EDIFF  = 0.1E-05   stopping-criterion for ELM
   LREAL  =      F    real-space projection
   NLSPLINE    = F    spline interpolate recip. space projectors
   LCOMPAT=      F    compatible to vasp.4.4
   GGA_COMPAT  = T    GGA compatible to vasp.4.4-vasp.4.6
   LMAXPAW     = -100 max onsite density
   LMAXMIX     =    2 max onsite mixed and CHGCAR
   VOSKOWN=      0    Vosko Wilk Nusair interpolation
   ROPT   =    0.00000
 Ionic relaxation
   EDIFFG = -.2E-01   stopping-criterion for IOM
   NSW    =    100    number of steps for IOM
   NBLOCK =      1;   KBLOCK =    100    inner block; outer block 
   IBRION =      2    ionic relax: 0-MD 1-quasi-New 2-CG
   NFREE  =      1    steps in history (QN), initial steepest desc. (CG)
   ISIF   =      2    stress and relaxation
   IWAVPR =     11    prediction:  0-non 1-charg 2-wave 3-comb
   ISYM   =      1    0-nonsym 1-usesym 2-fastsym
   LCORR  =      T    Harris-Foulkes like correction to forces

   POTIM  = 0.5000    time-step for ionic-motion
   TEIN   =    0.0    initial temperature
   TEBEG  =    0.0;   TEEND  =   0.0 temperature during run
   SMASS  =  -3.00    Nose mass-parameter (am)
   estimated Nose-frequenzy (Omega)   =  0.10E-29 period in steps = 0.13E+47 mass=  -0.145E-27a.u.
   SCALEE = 1.0000    scale energy and forces
   NPACO  =    256;   APACO  = 10.0  distance and # of slots for P.C.
   PSTRESS=    0.0 pullay stress

  Mass of Ions in am
   POMASS =  58.93
  Ionic Valenz
   ZVAL   =   9.00
  Atomic Wigner-Seitz radii
   RWIGS  =  -1.00
  virtual crystal weights 
   VCA    =   1.00
   NELECT =      18.0000    total number of electrons
   NUPDOWN=      -1.0000    fix difference up-down

 DOS related values:
   EMIN   =  10.00;   EMAX   =-10.00  energy-range for DOS
   EFERMI =   0.00
   ISMEAR =     0;   SIGMA  =   0.05  broadening in eV -4-tet -1-fermi 0-gaus

 Electronic relaxation 2 (details)
   IALGO  =     38    algorithm
   LDIAG  =      T    sub-space diagonalisation (order eigenvalues)
   LSUBROT=      F    optimize rotation matrix (better conditioning)
   TURBO    =      0    0=normal 1=particle mesh
   IRESTART =      0    0=no restart 2=restart with 2 vectors
   NREBOOT  =      0    no. of reboots
   NMIN     =      0    reboot dimension
   EREF     =   0.00    reference energy to select bands
   IMIX   =      4    mixing-type and parameters
     AMIX     =   0.40;   BMIX     =  1.00
     AMIX_MAG =   1.60;   BMIX_MAG =  1.00
     AMIN     =   0.10
     WC   =   100.;   INIMIX=   1;  MIXPRE=   1;  MAXMIX= -45

 Intra band minimization:
   WEIMIN = 0.0010     energy-eigenvalue tresh-hold
   EBREAK =  0.16E-07  absolut break condition
   DEPER  =   0.30     relativ break condition  

   TIME   =   0.40     timestep for ELM

  volume/ion in A,a.u.               =      11.21        75.65
  Fermi-wavevector in a.u.,A,eV,Ry     =   1.521565  2.875340 31.499652  2.315159
  Thomas-Fermi vector in A             =   2.630263
 
 Write flags
   LWAVE        =      T    write WAVECAR
   LDOWNSAMPLE  =      F    k-point downsampling of WAVECAR
   LCHARG       =      T    write CHGCAR
   LVTOT        =      F    write LOCPOT, total local potential
   LVHAR        =      F    write LOCPOT, Hartree potential only
   LELF         =      F    write electronic localiz. function (ELF)
   LORBIT       =     11    0 simple, 1 ext, 2 COOP (PROOUT), +10 PAW based schemes


 Dipole corrections
   LMONO  =      F    monopole corrections only (constant potential shift)
   LDIPOL =      F    correct potential (dipole corrections)
   IDIPOL =      0    1-x, 2-y, 3-z, 4-all directions 
   EPSILON=  1.0000000 bulk dielectric constant

 Exchange correlation treatment:
   GGA     =    --    GGA type
   LEXCH   =     8    internal setting for exchange type
   LIBXC   =     F    Libxc                    
   VOSKOWN =     0    Vosko Wilk Nusair interpolation
   LHFCALC =     F    Hartree Fock is set to
   LHFONE  =     F    Hartree Fock one center treatment
   AEXX    =    0.0000 exact exchange contribution

 Linear response parameters
   LEPSILON=     F    determine dielectric tensor
   LRPA    =     F    only Hartree local field effects (RPA)
   LNABLA  =     F    use nabla operator in PAW spheres
   LVEL    =     F    velocity operator in full k-point grid
   CSHIFT  =0.1000    complex shift for real part using Kramers Kronig
   OMEGAMAX=  -1.0    maximum frequency
   DEG_THRESHOLD= 0.2000000E-02 threshold for treating states as degnerate
   RTIME   =   -0.100 relaxation time in fs
  (WPLASMAI=    0.000 imaginary part of plasma frequency in eV, 0.658/RTIME)
   DFIELD  = 0.0000000 0.0000000 0.0000000 field for delta impulse in time
 
  Optional k-point grid parameters
   LKPOINTS_OPT  =     F    use optional k-point grid
   KPOINTS_OPT_MODE=     1    mode for optional k-point grid
 
 Orbital magnetization related:
   ORBITALMAG=     F  switch on orbital magnetization
   LCHIMAG   =     F  perturbation theory with respect to B field
   DQ        =  0.001000  dq finite difference perturbation B field
   LLRAUG    =     F  two centre corrections for induced B field



--------------------------------------------------------------------------------------------------------


 conjugate gradient relaxation of ions
 charge density and potential will be updated during run
 spin polarized calculation
 Variant of blocked Davidson
 Davidson routine will perform the subspace rotation
 perform sub-space diagonalisation
    after iterative eigenvector-optimisation
 modified Broyden-mixing scheme, WC =      100.0
 initial mixing is a Kerker type mixing with AMIX =  0.4000 and BMIX =      1.0000
 Hartree-type preconditioning will be used
 using additional bands            7
 reciprocal scheme for non local part
 use partial core corrections
 calculate Harris-corrections to forces 
   (improved forces if not selfconsistent)
 use gradient corrections 
 use of overlap-Matrix (Vanderbilt PP)
 Gauss-broadening in eV      SIGMA  =   0.05


--------------------------------------------------------------------------------------------------------


  energy-cutoff  :      400.00
  volume of cell :       22.42
      direct lattice vectors                 reciprocal lattice vectors
     2.519856663  0.000000000  0.000000000     0.396847969  0.229120282  0.000000000
    -1.259928332  2.182259884  0.000000000     0.000000000  0.458240564  0.000000000
     0.000000000  0.000000000  4.077025525     0.000000000  0.000000000  0.245276855

  length of vectors
     2.519856663  2.519856663  4.077025525     0.458240564  0.458240564  0.245276855


 
 k-points in units of 2pi/SCALE and weight: Automatic mesh                          
   0.00000000  0.00000000  0.00000000       0.001
   0.03968480  0.02291203  0.00000000       0.007
   0.07936959  0.04582406  0.00000000       0.007
   0.11905439  0.06873608  0.00000000       0.007
   0.15873919  0.09164811  0.00000000       0.007
   0.19842398  0.11456014  0.00000000       0.004
   0.03968480  0.06873608  0.00000000       0.007
   0.07936959  0.09164811  0.00000000       0.015
   0.11905439  0.11456014  0.00000000       0.015
   0.15873919  0.13747217  0.00000000       0.015
   0.07936959  0.13747217  0.00000000       0.007
   0.11905439  0.16038420  0.00000000       0.015
   0.15873919  0.18329623  0.00000000       0.007
   0.11905439  0.20620825  0.00000000       0.007
   0.00000000  0.00000000  0.03065961       0.003
   0.03968480  0.02291203  0.03065961       0.015
   0.07936959  0.04582406  0.03065961       0.015
   0.11905439  0.06873608  0.03065961       0.015
   0.15873919  0.09164811  0.03065961       0.015
   0.19842398  0.11456014  0.03065961       0.007
   0.03968480  0.06873608  0.03065961       0.015
   0.07936959  0.09164811  0.03065961       0.030
   0.11905439  0.11456014  0.03065961       0.030
   0.15873919  0.13747217  0.03065961       0.030
   0.07936959  0.13747217  0.03065961       0.015
   0.11905439  0.16038420  0.03065961       0.030
   0.15873919  0.18329623  0.03065961       0.015
   0.11905439  0.20620825  0.03065961       0.015
   0.00000000  0.00000000  0.06131921       0.003
   0.03968480  0.02291203  0.06131921       0.015
   0.07936959  0.04582406  0.06131921       0.015
   0.11905439  0.06873608  0.06131921       0.015
   0.15873919  0.09164811  0.06131921       0.015
   0.19842398  0.11456014  0.06131921       0.007
   0.03968480  0.06873608  0.06131921       0.015
   0.07936959  0.09164811  0.06131921       0.030
   0.11905439  0.11456014  0.06131921       0.030
   0.15873919  0.13747217  0.06131921       0.030
   0.07936959  0.13747217  0.06131921       0.015
   0.11905439  0.16038420  0.06131921       0.030
   0.15873919  0.18329623  0.06131921       0.015
   0.11905439  0.20620825  0.06131921       0.015
   0.00000000  0.00000000  0.09197882       0.003
   0.03968480  0.02291203  0.09197882       0.015
   0.07936959  0.04582406  0.09197882       0.015
   0.11905439  0.06873608  0.09197882       0.015
   0.15873919  0.09164811  0.09197882       0.015
   0.19842398  0.11456014  0.09197882       0.007
   0.03968480  0.06873608  0.09197882       0.015
   0.07936959  0.09164811  0.09197882       0.030
   0.11905439  0.11456014  0.09197882       0.030
   0.15873919  0.13747217  0.09197882       0.030
   0.07936959  0.13747217  0.09197882       0.015
   0.11905439  0.16038420  0.09197882       0.030
   0.15873919  0.18329623  0.09197882       0.015
   0.11905439  0.20620825  0.09197882       0.015
   0.00000000  0.00000000  0.12263843       0.001
   0.03968480  0.02291203  0.12263843       0.007
   0.07936959  0.04582406  0.12263843       0.007
   0.11905439  0.06873608  0.12263843       0.007
   0.15873919  0.09164811  0.12263843       0.007
   0.19842398  0.11456014  0.12263843       0.004
   0.03968480  0.06873608  0.12263843       0.007
   0.07936959  0.09164811  0.12263843       0.015
   0.11905439  0.11456014  0.12263843       0.015
   0.15873919  0.13747217  0.12263843       0.015
   0.07936959  0.13747217  0.12263843       0.007
   0.11905439  0.16038420  0.12263843       0.015
   0.15873919  0.18329623  0.12263843       0.007
   0.11905439  0.20620825  0.12263843       0.007
 
 k-points in reciprocal lattice and weights: Automatic mesh                          
   0.00000000  0.00000000  0.00000000       0.001
   0.10000000 -0.00000000  0.00000000       0.007
   0.20000000 -0.00000000  0.00000000       0.007
   0.30000000  0.00000000  0.00000000       0.007
   0.40000000  0.00000000  0.00000000       0.007
   0.50000000  0.00000000  0.00000000       0.004
   0.10000000  0.10000000  0.00000000       0.007
   0.20000000  0.10000000  0.00000000       0.015
   0.30000000  0.10000000  0.00000000       0.015
   0.40000000  0.10000000  0.00000000       0.015
   0.20000000  0.20000000  0.00000000       0.007
   0.30000000  0.20000000  0.00000000       0.015
   0.40000000  0.20000000  0.00000000       0.007
   0.30000000  0.30000000  0.00000000       0.007
   0.00000000  0.00000000  0.12500000       0.003
   0.10000000 -0.00000000  0.12500000       0.015
   0.20000000 -0.00000000  0.12500000       0.015
   0.30000000  0.00000000  0.12500000       0.015
   0.40000000  0.00000000  0.12500000       0.015
   0.50000000  0.00000000  0.12500000       0.007
   0.10000000  0.10000000  0.12500000       0.015
   0.20000000  0.10000000  0.12500000       0.030
   0.30000000  0.10000000  0.12500000       0.030
   0.40000000  0.10000000  0.12500000       0.030
   0.20000000  0.20000000  0.12500000       0.015
   0.30000000  0.20000000  0.12500000       0.030
   0.40000000  0.20000000  0.12500000       0.015
   0.30000000  0.30000000  0.12500000       0.015
   0.00000000  0.00000000  0.25000000       0.003
   0.10000000 -0.00000000  0.25000000       0.015
   0.20000000 -0.00000000  0.25000000       0.015
   0.30000000  0.00000000  0.25000000       0.015
   0.40000000  0.00000000  0.25000000       0.015
   0.50000000  0.00000000  0.25000000       0.007
   0.10000000  0.10000000  0.25000000       0.015
   0.20000000  0.10000000  0.25000000       0.030
   0.30000000  0.10000000  0.25000000       0.030
   0.40000000  0.10000000  0.25000000       0.030
   0.20000000  0.20000000  0.25000000       0.015
   0.30000000  0.20000000  0.25000000       0.030
   0.40000000  0.20000000  0.25000000       0.015
   0.30000000  0.30000000  0.25000000       0.015
   0.00000000  0.00000000  0.37500000       0.003
   0.10000000 -0.00000000  0.37500000       0.015
   0.20000000 -0.00000000  0.37500000       0.015
   0.30000000  0.00000000  0.37500000       0.015
   0.40000000  0.00000000  0.37500000       0.015
   0.50000000  0.00000000  0.37500000       0.007
   0.10000000  0.10000000  0.37500000       0.015
   0.20000000  0.10000000  0.37500000       0.030
   0.30000000  0.10000000  0.37500000       0.030
   0.40000000  0.10000000  0.37500000       0.030
   0.20000000  0.20000000  0.37500000       0.015
   0.30000000  0.20000000  0.37500000       0.030
   0.40000000  0.20000000  0.37500000       0.015
   0.30000000  0.30000000  0.37500000       0.015
   0.00000000  0.00000000  0.50000000       0.001
   0.10000000 -0.00000000  0.50000000       0.007
   0.20000000 -0.00000000  0.50000000       0.007
   0.30000000  0.00000000  0.50000000       0.007
   0.40000000  0.00000000  0.50000000       0.007
   0.50000000  0.00000000  0.50000000       0.004
   0.10000000  0.10000000  0.50000000       0.007
   0.20000000  0.10000000  0.50000000       0.015
   0.30000000  0.10000000  0.50000000       0.015
   0.40000000  0.10000000  0.50000000       0.015
   0.20000000  0.20000000  0.50000000       0.007
   0.30000000  0.20000000  0.50000000       0.015
   0.40000000  0.20000000  0.50000000       0.007
   0.30000000  0.30000000  0.50000000       0.007
 
 position of ions in fractional coordinates (direct lattice) 
   0.00000000  0.00000000  0.00000000
   0.33333333  0.66666667  0.50000000
 
 position of ions in cartesian coordinates  (Angst):
   0.00000000  0.00000000  0.00000000
   0.00000000  1.45483992  2.03851276
 


--------------------------------------------------------------------------------------------------------


 k-point   1 :   0.0000 0.0000 0.0000  plane waves:     391
 k-point   2 :   0.1000-0.0000 0.0000  plane waves:     399
 k-point   3 :   0.2000-0.0000 0.0000  plane waves:     403
 k-point   4 :   0.3000 0.0000 0.0000  plane waves:     403
 k-point   5 :   0.4000 0.0000 0.0000  plane waves:     415
 k-point   6 :   0.5000 0.0000 0.0000  plane waves:     428
 k-point   7 :   0.1000 0.1000 0.0000  plane waves:     402
 k-point   8 :   0.2000 0.1000 0.0000  plane waves:     405
 k-point   9 :   0.3000 0.1000 0.0000  plane waves:     407
 k-point  10 :   0.4000 0.1000 0.0000  plane waves:     410
 k-point  11 :   0.2000 0.2000 0.0000  plane waves:     410
 k-point  12 :   0.3000 0.2000 0.0000  plane waves:     407
 k-point  13 :   0.4000 0.2000 0.0000  plane waves:     418
 k-point  14 :   0.3000 0.3000 0.0000  plane waves:     410
 k-point  15 :   0.0000 0.0000 0.1250  plane waves:     391
 k-point  16 :   0.1000-0.0000 0.1250  plane waves:     397
 k-point  17 :   0.2000-0.0000 0.1250  plane waves:     403
 k-point  18 :   0.3000 0.0000 0.1250  plane waves:     408
 k-point  19 :   0.4000 0.0000 0.1250  plane waves:     411
 k-point  20 :   0.5000 0.0000 0.1250  plane waves:     422
 k-point  21 :   0.1000 0.1000 0.1250  plane waves:     401
 k-point  22 :   0.2000 0.1000 0.1250  plane waves:     408
 k-point  23 :   0.3000 0.1000 0.1250  plane waves:     407
 k-point  24 :   0.4000 0.1000 0.1250  plane waves:     412
 k-point  25 :   0.2000 0.2000 0.1250  plane waves:     409
 k-point  26 :   0.3000 0.2000 0.1250  plane waves:     412
 k-point  27 :   0.4000 0.2000 0.1250  plane waves:     410
 k-point  28 :   0.3000 0.3000 0.1250  plane waves:     408
 k-point  29 :   0.0000 0.0000 0.2500  plane waves:     397
 k-point  30 :   0.1000-0.0000 0.2500  plane waves:     398
 k-point  31 :   0.2000-0.0000 0.2500  plane waves:     406
 k-point  32 :   0.3000 0.0000 0.2500  plane waves:     416
 k-point  33 :   0.4000 0.0000 0.2500  plane waves:     409
 k-point  34 :   0.5000 0.0000 0.2500  plane waves:     404
 k-point  35 :   0.1000 0.1000 0.2500  plane waves:     401
 k-point  36 :   0.2000 0.1000 0.2500  plane waves:     404
 k-point  37 :   0.3000 0.1000 0.2500  plane waves:     405
 k-point  38 :   0.4000 0.1000 0.2500  plane waves:     408
 k-point  39 :   0.2000 0.2000 0.2500  plane waves:     406
 k-point  40 :   0.3000 0.2000 0.2500  plane waves:     411
 k-point  41 :   0.4000 0.2000 0.2500  plane waves:     408
 k-point  42 :   0.3000 0.3000 0.2500  plane waves:     409
 k-point  43 :   0.0000 0.0000 0.3750  plane waves:     398
 k-point  44 :   0.1000-0.0000 0.3750  plane waves:     400
 k-point  45 :   0.2000-0.0000 0.3750  plane waves:     401
 k-point  46 :   0.3000 0.0000 0.3750  plane waves:     411
 k-point  47 :   0.4000 0.0000 0.3750  plane waves:     409
 k-point  48 :   0.5000 0.0000 0.3750  plane waves:     406
 k-point  49 :   0.1000 0.1000 0.3750  plane waves:     398
 k-point  50 :   0.2000 0.1000 0.3750  plane waves:     407
 k-point  51 :   0.3000 0.1000 0.3750  plane waves:     410
 k-point  52 :   0.4000 0.1000 0.3750  plane waves:     407
 k-point  53 :   0.2000 0.2000 0.3750  plane waves:     406
 k-point  54 :   0.3000 0.2000 0.3750  plane waves:     407
 k-point  55 :   0.4000 0.2000 0.3750  plane waves:     405
 k-point  56 :   0.3000 0.3000 0.3750  plane waves:     409
 k-point  57 :   0.0000 0.0000 0.5000  plane waves:     386
 k-point  58 :   0.1000-0.0000 0.5000  plane waves:     394
 k-point  59 :   0.2000-0.0000 0.5000  plane waves:     402
 k-point  60 :   0.3000 0.0000 0.5000  plane waves:     410
 k-point  61 :   0.4000 0.0000 0.5000  plane waves:     408
 k-point  62 :   0.5000 0.0000 0.5000  plane waves:     408
 k-point  63 :   0.1000 0.1000 0.5000  plane waves:     400
 k-point  64 :   0.2000 0.1000 0.5000  plane waves:     406
 k-point  65 :   0.3000 0.1000 0.5000  plane waves:     408
 k-point  66 :   0.4000 0.1000 0.5000  plane waves:     404
 k-point  67 :   0.2000 0.2000 0.5000  plane waves:     410
 k-point  68 :   0.3000 0.2000 0.5000  plane waves:     408
 k-point  69 :   0.4000 0.2000 0.5000  plane waves:     408
 k-point  70 :   0.3000 0.3000 0.5000  plane waves:     412

 maximum and minimum number of plane-waves per node :        75       58

 maximum number of plane-waves:       428
 maximum index in each direction: 
   IXMAX=    4   IYMAX=    4   IZMAX=    6
   IXMIN=   -4   IYMIN=   -4   IZMIN=   -7


 parallel 3D FFT for wavefunctions:
    minimum data exchange during FFTs selected (reduces bandwidth)
 parallel 3D FFT for charge:
    minimum data exchange during FFTs selected (reduces bandwidth)


 total amount of memory used by VASP MPI-rank0    32186. kBytes
=======================================================================

   base      :      30000. kBytes
   nonl-proj :        768. kBytes
   fftplans  :        153. kBytes
   grid      :        374. kBytes
   one-center:         31. kBytes
   wavefun   :        860. kBytes
 
     INWAV:  cpu time      0.0000: real time      0.0001
 Broyden mixing: mesh for mixing (old mesh)
   NGX =  9   NGY =  9   NGZ = 13
  (NGX  = 32   NGY  = 32   NGZ  = 56)
  gives a total of   1053 points

 initial charge density was supplied:
 charge density of overlapping atoms calculated
 number of electron      18.0000000 magnetization       6.0000000
 keeping initial charge density in first step


--------------------------------------------------------------------------------------------------------


 Maximum index for augmentation-charges         1038 (set IRDMAX)


--------------------------------------------------------------------------------------------------------


 First call to EWALD:  gamma=   0.629
 Maximum number of real-space cells 3x 3x 2
 Maximum number of reciprocal cells 3x 3x 4

    FEWALD:  cpu time      0.0015: real time      0.0015


--------------------------------------- Iteration      1(   1)  ---------------------------------------


    POTLOK:  cpu time      0.0063: real time      0.0064
    SETDIJ:  cpu time      0.0054: real time      0.0054
     EDDAV:  cpu time      0.4237: real time      0.4262
       DOS:  cpu time      0.0017: real time      0.0017
    --------------------------------------------
      LOOP:  cpu time      0.4371: real time      0.4398

 eigenvalue-minimisations  :  4680
 total energy-change (2. order) : 0.6852192E+02  (-0.6722486E+03)
 number of electron      18.0000000 magnetization       6.0000000
 augmentation part       18.0000000 magnetization       6.0000000

 Free energy of the ion-electron system (eV)
  ---------------------------------------------------
  alpha Z        PSCENC =        75.57297708
  Ewald energy   TEWEN  =     -1505.18982814
  -Hartree energ DENC   =      -306.98500464
  -exchange      EXHF   =         0.00000000
  -V(xc)+E(xc)   XCENC  =        35.42052241
  PAW double counting   =      1439.98163886    -1545.88690193
  entropy T*S    EENTRO =        -0.00332189
  eigenvalues    EBANDS =       248.89636563
  atomic energy  EATOM  =      1626.71546820
  Solvation  Ediel_sol  =         0.00000000
  ---------------------------------------------------
  free energy    TOTEN  =        68.52191558 eV

  energy without entropy =       68.52523747  energy(sigma->0) =       68.52357652


--------------------------------------------------------------------------------------------------------




--------------------------------------- Iteration      1(   2)  ---------------------------------------


     EDDAV:  cpu time      0.3936: real time      0.3963
       DOS:  cpu time      0.0014: real time      0.0014
    --------------------------------------------
      LOOP:  cpu time      0.3950: real time      0.3977

 eigenvalue-minimisations  :  4488
 total energy-change (2. order) :-0.8219345E+02  (-0.7571849E+02)
 number of electron      18.0000000 magnetization       6.0000000
 augmentation part       18.0000000 magnetization       6.0000000

 Free energy of the ion-electron system (eV)
  ---------------------------------------------------
  alpha Z        PSCENC =        75.57297708
  Ewald energy   TEWEN  =     -1505.18982814
  -Hartree energ DENC   =      -306.98500464
  -exchange      EXHF   =         0.00000000
  -V(xc)+E(xc)   XCENC  =        35.42052241
  PAW double counting   =      1439.98163886    -1545.88690193
  entropy T*S    EENTRO =        -0.00171957
  eigenvalues    EBANDS =       166.70131611
  atomic energy  EATOM  =      1626.71546820
  Solvation  Ediel_sol  =         0.00000000
  ---------------------------------------------------
  free energy    TOTEN  =       -13.67153162 eV

  energy without entropy =      -13.66981205  energy(sigma->0) =      -13.67067183


--------------------------------------------------------------------------------------------------------




--------------------------------------- Iteration      1(   3)  ---------------------------------------


     EDDAV:  cpu time      0.4850: real time      0.4876
       DOS:  cpu time      0.0011: real time      0.0012
    --------------------------------------------
      LOOP:  cpu time      0.4861: real time      0.4887

 eigenvalue-minimisations  :  5736
 total energy-change (2. order) :-0.1980944E+01  (-0.1948653E+01)
 number of electron      18.0000000 magnetization       6.0000000
 augmentation part       18.0000000 magnetization       6.0000000

 Free energy of the ion-electron system (eV)
  ---------------------------------------------------
  alpha Z        PSCENC =        75.57297708
  Ewald energy   TEWEN  =     -1505.18982814
  -Hartree energ DENC   =      -306.98500464
  -exchange      EXHF   =         0.00000000
  -V(xc)+E(xc)   XCENC  =        35.42052241
  PAW double counting   =      1439.98163886    -1545.88690193
  entropy T*S    EENTRO =        -0.00215758
  eigenvalues    EBANDS =       164.72080963
  atomic energy  EATOM  =      1626.71546820
  Solvation  Ediel_sol  =         0.00000000
  ---------------------------------------------------
  free energy    TOTEN  =       -15.65247612 eV

  energy without entropy =      -15.65031853  energy(sigma->0) =      -15.65139732


--------------------------------------------------------------------------------------------------------




--------------------------------------- Iteration      1(   4)  ---------------------------------------


     EDDAV:  cpu time      0.5371: real time      0.5399
       DOS:  cpu time      0.0013: real time      0.0013
    --------------------------------------------
      LOOP:  cpu time      0.5384: real time      0.5412

 eigenvalue-minimisations  :  6328
 total energy-change (2. order) :-0.3504656E-01  (-0.3503990E-01)
 number of electron      18.0000000 magnetization       6.0000000
 augmentation part       18.0000000 magnetization       6.0000000

 Free energy of the ion-electron system (eV)
  ---------------------------------------------------
  alpha Z        PSCENC =        75.57297708
  Ewald energy   TEWEN  =     -1505.18982814
  -Hartree energ DENC   =      -306.98500464
  -exchange      EXHF   =         0.00000000
  -V(xc)+E(xc)   XCENC  =        35.42052241
  PAW double counting   =      1439.98163886    -1545.88690193
  entropy T*S    EENTRO =        -0.00217494
  eigenvalues    EBANDS =       164.68578042
  atomic energy  EATOM  =      1626.71546820
  Solvation  Ediel_sol  =         0.00000000
  ---------------------------------------------------
  free energy    TOTEN  =       -15.68752268 eV

  energy without entropy =      -15.68534774  energy(sigma->0) =      -15.68643521


--------------------------------------------------------------------------------------------------------




--------------------------------------- Iteration      1(   5)  ---------------------------------------


     EDDAV:  cpu time      0.4857: real time      0.4883
       DOS:  cpu time      0.0014: real time      0.0014
    CHARGE:  cpu time      0.0203: real time      0.0203
    MIXING:  cpu time      0.0003: real time      0.0003
    --------------------------------------------
      LOOP:  cpu time      0.5077: real time      0.5103

 eigenvalue-minimisations  :  5768
 total energy-change (2. order) :-0.1635610E-03  (-0.1635595E-03)
 number of electron      18.0000016 magnetization       3.5512328
 augmentation part        9.1450194 magnetization       2.7661147

 Broyden mixing:
  rms(total) = 0.15576E+01    rms(broyden)= 0.15575E+01
  rms(prec ) = 0.26743E+01
  weight for this iteration     100.00

 Free energy of the ion-electron system (eV)
  ---------------------------------------------------
  alpha Z        PSCENC =        75.57297708
  Ewald energy   TEWEN  =     -1505.18982814
  -Hartree energ DENC   =      -306.98500464
  -exchange      EXHF   =         0.00000000
  -V(xc)+E(xc)   XCENC  =        35.42052241
  PAW double counting   =      1439.98163886    -1545.88690193
  entropy T*S    EENTRO =        -0.00217532
  eigenvalues    EBANDS =       164.68561724
  atomic energy  EATOM  =      1626.71546820
  Solvation  Ediel_sol  =         0.00000000
  ---------------------------------------------------
  free energy    TOTEN  =       -15.68768624 eV

  energy without entropy =      -15.68551092  energy(sigma->0) =      -15.68659858


--------------------------------------------------------------------------------------------------------




--------------------------------------- Iteration      1(   6)  ---------------------------------------


    POTLOK:  cpu time      0.0045: real time      0.0046
    SETDIJ:  cpu time      0.0051: real time      0.0052
     EDDAV:  cpu time      0.4103: real time      0.4124
       DOS:  cpu time      0.0014: real time      0.0014
    CHARGE:  cpu time      0.0187: real time      0.0188
    MIXING:  cpu time      0.0003: real time      0.0003
    --------------------------------------------
      LOOP:  cpu time      0.4404: real time      0.4427

 eigenvalue-minimisations  :  4736
 total energy-change (2. order) : 0.1193521E+01  (-0.1176628E+01)
 number of electron      18.0000019 magnetization       3.3572084
 augmentation part       10.7471175 magnetization       2.9439845

 Broyden mixing:
  rms(total) = 0.69651E+00    rms(broyden)= 0.69648E+00
  rms(prec ) = 0.96167E+00
  weight for this iteration     100.00

 eigenvalues of (default mixing * dielectric matrix)
  average eigenvalue GAMMA=   0.8385
  0.8385

 Free energy of the ion-electron system (eV)
  ---------------------------------------------------
  alpha Z        PSCENC =        75.57297708
  Ewald energy   TEWEN  =     -1505.18982814
  -Hartree energ DENC   =      -268.86947844
  -exchange      EXHF   =         0.00000000
  -V(xc)+E(xc)   XCENC  =        32.41297620
  PAW double counting   =      1567.28798270    -1662.60192932
  entropy T*S    EENTRO =        -0.00276721
  eigenvalues    EBANDS =       120.18043405
  atomic energy  EATOM  =      1626.71546820
  Solvation  Ediel_sol  =         0.00000000
  ---------------------------------------------------
  free energy    TOTEN  =       -14.49416489 eV

  energy without entropy =      -14.49139768  energy(sigma->0) =      -14.49278129


--------------------------------------------------------------------------------------------------------




--------------------------------------- Iteration      1(   7)  ---------------------------------------


    POTLOK:  cpu time      0.0044: real time      0.0045
    SETDIJ:  cpu time      0.0050: real time      0.0051
     EDDAV:  cpu time      0.4287: real time      0.4309
       DOS:  cpu time      0.0014: real time      0.0014
    CHARGE:  cpu time      0.0182: real time      0.0182
    MIXING:  cpu time      0.0003: real time      0.0003
    --------------------------------------------
      LOOP:  cpu time      0.4579: real time      0.4604

 eigenvalue-minimisations  :  5000
 total energy-change (2. order) : 0.3997161E+00  (-0.1698820E+00)
 number of electron      18.0000018 magnetization       3.3507359
 augmentation part       10.1845542 magnetization       2.9731567

 Broyden mixing:
  rms(total) = 0.37710E+00    rms(broyden)= 0.37710E+00
  rms(prec ) = 0.44628E+00
  weight for this iteration     100.00

 eigenvalues of (default mixing * dielectric matrix)
  average eigenvalue GAMMA=   0.7359
  0.9856  0.4862

 Free energy of the ion-electron system (eV)
  ---------------------------------------------------
  alpha Z        PSCENC =        75.57297708
  Ewald energy   TEWEN  =     -1505.18982814
  -Hartree energ DENC   =      -277.72730583
  -exchange      EXHF   =         0.00000000
  -V(xc)+E(xc)   XCENC  =        32.93890557
  PAW double counting   =      1641.46108528    -1743.85633206
  entropy T*S    EENTRO =        -0.00292621
  eigenvalues    EBANDS =       135.99350735
  atomic energy  EATOM  =      1626.71546820
  Solvation  Ediel_sol  =         0.00000000
  ---------------------------------------------------
  free energy    TOTEN  =       -14.09444875 eV

  energy without entropy =      -14.09152254  energy(sigma->0) =      -14.09298565


--------------------------------------------------------------------------------------------------------




--------------------------------------- Iteration      1(   8)  ---------------------------------------


    POTLOK:  cpu time      0.0042: real time      0.0044
    SETDIJ:  cpu time      0.0047: real time      0.0048
     EDDAV:  cpu time      0.5224: real time      0.5250
       DOS:  cpu time      0.0014: real time      0.0014
    CHARGE:  cpu time      0.0189: real time      0.0190
    MIXING:  cpu time      0.0003: real time      0.0003
    --------------------------------------------
      LOOP:  cpu time      0.5519: real time      0.5548

 eigenvalue-minimisations  :  6224
 total energy-change (2. order) : 0.1821847E-01  (-0.2009234E-02)
 number of electron      18.0000018 magnetization       3.3734587
 augmentation part       10.2179398 magnetization       3.0215669

 Broyden mixing:
  rms(total) = 0.16284E+00    rms(broyden)= 0.16283E+00
  rms(prec ) = 0.21611E+00
  weight for this iteration     100.00

 eigenvalues of (default mixing * dielectric matrix)
  average eigenvalue GAMMA=   1.0069
  1.6854  0.7646  0.5706

 Free energy of the ion-electron system (eV)
  ---------------------------------------------------
  alpha Z        PSCENC =        75.57297708
  Ewald energy   TEWEN  =     -1505.18982814
  -Hartree energ DENC   =      -275.26152142
  -exchange      EXHF   =         0.00000000
  -V(xc)+E(xc)   XCENC  =        32.88618800
  PAW double counting   =      1690.74984781    -1794.33078308
  entropy T*S    EENTRO =        -0.00280843
  eigenvalues    EBANDS =       134.78422970
  atomic energy  EATOM  =      1626.71546820
  Solvation  Ediel_sol  =         0.00000000
  ---------------------------------------------------
  free energy    TOTEN  =       -14.07623028 eV

  energy without entropy =      -14.07342186  energy(sigma->0) =      -14.07482607


--------------------------------------------------------------------------------------------------------




--------------------------------------- Iteration      1(   9)  ---------------------------------------


    POTLOK:  cpu time      0.0045: real time      0.0046
    SETDIJ:  cpu time      0.0050: real time      0.0050
     EDDAV:  cpu time      0.5520: real time      0.5548
       DOS:  cpu time      0.0014: real time      0.0014
    CHARGE:  cpu time      0.0183: real time      0.0184
    MIXING:  cpu time      0.0003: real time      0.0003
    --------------------------------------------
      LOOP:  cpu time      0.5813: real time      0.5844

 eigenvalue-minimisations  :  6736
 total energy-change (2. order) : 0.1407761E-01  (-0.5943471E-03)
 number of electron      18.0000018 magnetization       3.3865269
 augmentation part       10.2556810 magnetization       3.0479672

 Broyden mixing:
  rms(total) = 0.49066E-01    rms(broyden)= 0.49065E-01
  rms(prec ) = 0.59638E-01
  weight for this iteration     100.00

 eigenvalues of (default mixing * dielectric matrix)
  average eigenvalue GAMMA=   1.0895
  2.1744  0.8048  0.7623  0.6167

 Free energy of the ion-electron system (eV)
  ---------------------------------------------------
  alpha Z        PSCENC =        75.57297708
  Ewald energy   TEWEN  =     -1505.18982814
  -Hartree energ DENC   =      -272.53549553
  -exchange      EXHF   =         0.00000000
  -V(xc)+E(xc)   XCENC  =        32.80793457
  PAW double counting   =      1745.62416889    -1850.63403366
  entropy T*S    EENTRO =        -0.00273704
  eigenvalues    EBANDS =       133.57939296
  atomic energy  EATOM  =      1626.71546820
  Solvation  Ediel_sol  =         0.00000000
  ---------------------------------------------------
  free energy    TOTEN  =       -14.06215267 eV

  energy without entropy =      -14.05941563  energy(sigma->0) =      -14.06078415


--------------------------------------------------------------------------------------------------------




--------------------------------------- Iteration      1(  10)  ---------------------------------------


    POTLOK:  cpu time      0.0042: real time      0.0044
    SETDIJ:  cpu time      0.0048: real time      0.0049
     EDDAV:  cpu time      0.5036: real time      0.5061
       DOS:  cpu time      0.0014: real time      0.0014
    CHARGE:  cpu time      0.0181: real time      0.0182
    MIXING:  cpu time      0.0003: real time      0.0003
    --------------------------------------------
      LOOP:  cpu time      0.5325: real time      0.5353

 eigenvalue-minimisations  :  6088
 total energy-change (2. order) : 0.9324217E-03  (-0.7200377E-04)
 number of electron      18.0000018 magnetization       3.3811463
 augmentation part       10.2607340 magnetization       3.0335505

 Broyden mixing:
  rms(total) = 0.79715E-02    rms(broyden)= 0.79712E-02
  rms(prec ) = 0.10830E-01
  weight for this iteration     100.00

 eigenvalues of (default mixing * dielectric matrix)
  average eigenvalue GAMMA=   1.1495
  2.3079  1.0664  1.0664  0.6534  0.6534

 Free energy of the ion-electron system (eV)
  ---------------------------------------------------
  alpha Z        PSCENC =        75.57297708
  Ewald energy   TEWEN  =     -1505.18982814
  -Hartree energ DENC   =      -271.66635846
  -exchange      EXHF   =         0.00000000
  -V(xc)+E(xc)   XCENC  =        32.75283845
  PAW double counting   =      1767.43479219    -1873.12243546
  entropy T*S    EENTRO =        -0.00280618
  eigenvalues    EBANDS =       133.44413208
  atomic energy  EATOM  =      1626.71546820
  Solvation  Ediel_sol  =         0.00000000
  ---------------------------------------------------
  free energy    TOTEN  =       -14.06122025 eV

  energy without entropy =      -14.05841407  energy(sigma->0) =      -14.05981716


--------------------------------------------------------------------------------------------------------




--------------------------------------- Iteration      1(  11)  ---------------------------------------


    POTLOK:  cpu time      0.0043: real time      0.0044
    SETDIJ:  cpu time      0.0048: real time      0.0048
     EDDAV:  cpu time      0.5531: real time      0.5559
       DOS:  cpu time      0.0013: real time      0.0013
    CHARGE:  cpu time      0.0182: real time      0.0183
    MIXING:  cpu time      0.0003: real time      0.0003
    --------------------------------------------
      LOOP:  cpu time      0.5820: real time      0.5850

 eigenvalue-minimisations  :  6752
 total energy-change (2. order) : 0.7993661E-05  (-0.8843024E-05)
 number of electron      18.0000018 magnetization       3.3811628
 augmentation part       10.2617613 magnetization       3.0303947

 Broyden mixing:
  rms(total) = 0.25267E-02    rms(broyden)= 0.25266E-02
  rms(prec ) = 0.39623E-02
  weight for this iteration     100.00

 eigenvalues of (default mixing * dielectric matrix)
  average eigenvalue GAMMA=   1.0787
  2.3142  1.0732  1.0732  0.6142  0.6987  0.6987

 Free energy of the ion-electron system (eV)
  ---------------------------------------------------
  alpha Z        PSCENC =        75.57297708
  Ewald energy   TEWEN  =     -1505.18982814
  -Hartree energ DENC   =      -271.54216265
  -exchange      EXHF   =         0.00000000
  -V(xc)+E(xc)   XCENC  =        32.73574974
  PAW double counting   =      1770.56282286    -1876.34572391
  entropy T*S    EENTRO =        -0.00285959
  eigenvalues    EBANDS =       133.43234415
  atomic energy  EATOM  =      1626.71546820
  Solvation  Ediel_sol  =         0.00000000
  ---------------------------------------------------
  free energy    TOTEN  =       -14.06121226 eV

  energy without entropy =      -14.05835266  energy(sigma->0) =      -14.05978246


--------------------------------------------------------------------------------------------------------




--------------------------------------- Iteration      1(  12)  ---------------------------------------


    POTLOK:  cpu time      0.0043: real time      0.0044
    SETDIJ:  cpu time      0.0049: real time      0.0049
     EDDAV:  cpu time      0.4204: real time      0.4225
       DOS:  cpu time      0.0013: real time      0.0013
    CHARGE:  cpu time      0.0185: real time      0.0186
    MIXING:  cpu time      0.0003: real time      0.0003
    --------------------------------------------
      LOOP:  cpu time      0.4497: real time      0.4521

 eigenvalue-minimisations  :  4896
 total energy-change (2. order) : 0.4163394E-05  (-0.5946123E-06)
 number of electron      18.0000018 magnetization       3.3816410
 augmentation part       10.2620435 magnetization       3.0308143

 Broyden mixing:
  rms(total) = 0.15461E-02    rms(broyden)= 0.15460E-02
  rms(prec ) = 0.24465E-02
  weight for this iteration     100.00

 eigenvalues of (default mixing * dielectric matrix)
  average eigenvalue GAMMA=   1.1890
  2.3388  1.8728  1.0662  1.0662  0.7029  0.6380  0.6380

 Free energy of the ion-electron system (eV)
  ---------------------------------------------------
  alpha Z        PSCENC =        75.57297708
  Ewald energy   TEWEN  =     -1505.18982814
  -Hartree energ DENC   =      -271.50914238
  -exchange      EXHF   =         0.00000000
  -V(xc)+E(xc)   XCENC  =        32.73431698
  PAW double counting   =      1771.40073555    -1877.20507050
  entropy T*S    EENTRO =        -0.00285888
  eigenvalues    EBANDS =       133.42219400
  atomic energy  EATOM  =      1626.71546820
  Solvation  Ediel_sol  =         0.00000000
  ---------------------------------------------------
  free energy    TOTEN  =       -14.06120809 eV

  energy without entropy =      -14.05834921  energy(sigma->0) =      -14.05977865


--------------------------------------------------------------------------------------------------------




--------------------------------------- Iteration      1(  13)  ---------------------------------------


    POTLOK:  cpu time      0.0044: real time      0.0045
    SETDIJ:  cpu time      0.0048: real time      0.0048
     EDDAV:  cpu time      0.3265: real time      0.3282
       DOS:  cpu time      0.0014: real time      0.0014
    --------------------------------------------
      LOOP:  cpu time      0.3370: real time      0.3388

 eigenvalue-minimisations  :  3208
 total energy-change (2. order) : 0.9135122E-06  (-0.9986475E-07)
 number of electron      18.0000018 magnetization       3.3816410
 augmentation part       10.2620435 magnetization       3.0308143

 Free energy of the ion-electron system (eV)
  ---------------------------------------------------
  alpha Z        PSCENC =        75.57297708
  Ewald energy   TEWEN  =     -1505.18982814
  -Hartree energ DENC   =      -271.46001787
  -exchange      EXHF   =         0.00000000
  -V(xc)+E(xc)   XCENC  =        32.73246114
  PAW double counting   =      1772.68054421    -1878.51378934
  entropy T*S    EENTRO =        -0.00286293
  eigenvalues    EBANDS =       133.40384047
  atomic energy  EATOM  =      1626.71546820
  Solvation  Ediel_sol  =         0.00000000
  ---------------------------------------------------
  free energy    TOTEN  =       -14.06120718 eV

  energy without entropy =      -14.05834425  energy(sigma->0) =      -14.05977572


--------------------------------------------------------------------------------------------------------




 average (electrostatic) potential at core
  the test charge radii are     1.0452
  (the norm of the test charge is              1.0000)
       1 -78.7405       2 -78.7405
 
 
 
 E-fermi :   9.7604     XC(G=0): -13.2155     alpha+bet :-17.1586

 Fermi energy:         9.7604123469

 spin component 1

 k-point     1 :       0.0000    0.0000    0.0000
  band No.  band energies     occupation 
      1       1.0764      1.00000
      2       4.7945      1.00000
      3       7.1922      1.00000
      4       7.2130      1.00000
      5       7.2130      1.00000
      6       7.5062      1.00000
      7       7.5062      1.00000
      8       7.8380      1.00000
      9       7.8380      1.00000
     10       8.8785      1.00000
     11       8.8785      1.00000
     12       9.7362      0.75286
     13      15.8339      0.00000
     14      31.5052      0.00000
     15      33.7386      0.00000
     16      33.7386      0.00000

 k-point     2 :       0.1000   -0.0000    0.0000
  band No.  band energies     occupation 
      1       1.4168      1.00000
      2       4.9922      1.00000
      3       6.9421      1.00000
      4       7.3666      1.00000
      5       7.3927      1.00000
      6       7.4702      1.00000
      7       7.6092      1.00000
      8       7.6416      1.00000
      9       7.7444      1.00000
     10       8.0601      1.00000
     11       8.9173      1.00000
     12      11.0218      0.00000
     13      15.9005      0.00000
     14      28.7782      0.00000
     15      31.1979      0.00000
     16      31.6361      0.00000

 k-point     3 :       0.2000   -0.0000    0.0000
  band No.  band energies     occupation 
      1       2.3837      1.00000
      2       5.4210      1.00000
      3       6.6515      1.00000
      4       6.7479      1.00000
      5       7.2501      1.00000
      6       7.5288      1.00000
      7       7.7320      1.00000
      8       7.7872      1.00000
      9       7.8076      1.00000
     10       8.0097      1.00000
     11       8.9905      1.00000
     12      12.9447      0.00000
     13      16.1422      0.00000
     14      24.1918      0.00000
     15      28.4956      0.00000
     16      30.5129      0.00000

 k-point     4 :       0.3000    0.0000    0.0000
  band No.  band energies     occupation 
      1       3.7414      1.00000
      2       5.5453      1.00000
      3       6.0301      1.00000
      4       6.6308      1.00000
      5       7.2627      1.00000
      6       7.2974      1.00000
      7       7.5150      1.00000
      8       8.3466      1.00000
      9       8.4277      1.00000
     10       8.4987      1.00000
     11       9.0484      1.00000
     12      15.1455      0.00000
     13      16.5311      0.00000
     14      20.1139      0.00000
     15      26.3076      0.00000
     16      27.5790      0.00000

 k-point     5 :       0.4000    0.0000    0.0000
  band No.  band energies     occupation 
      1       4.8216      1.00000
      2       5.3416      1.00000
      3       5.5977      1.00000
      4       6.9893      1.00000
      5       7.1274      1.00000
      6       7.3520      1.00000
      7       7.4978      1.00000
      8       8.8201      1.00000
      9       8.9463      1.00000
     10       9.0792      1.00000
     11       9.5586      1.00000
     12      15.1380      0.00000
     13      17.5234      0.00000
     14      18.9146      0.00000
     15      24.2321      0.00000
     16      24.8364      0.00000

 k-point     6 :       0.5000    0.0000    0.0000
  band No.  band energies     occupation 
      1       5.1690      1.00000
      2       5.1735      1.00000
      3       5.4542      1.00000
      4       7.0655      1.00000
      5       7.2908      1.00000
      6       7.3177      1.00000
      7       7.6014      1.00000
      8       8.9990      1.00000
      9       9.0884      1.00000
     10       9.1402      1.00000
     11      10.9866      0.00000
     12      12.9240      0.00000
     13      19.2177      0.00000
     14      19.8233      0.00000
     15      22.2195      0.00000
     16      23.3111      0.00000

 k-point     7 :       0.1000    0.1000    0.0000
  band No.  band energies     occupation 
      1       2.0732      1.00000
      2       5.3230      1.00000
      3       6.6853      1.00000
      4       7.0143      1.00000
      5       7.3206      1.00000
      6       7.4905      1.00000
      7       7.5978      1.00000
      8       7.6798      1.00000
      9       7.8756      1.00000
     10       7.9494      1.00000
     11       8.9566      1.00000
     12      12.4032      0.00000
     13      16.0605      0.00000
     14      26.3620      0.00000
     15      26.9190      0.00000
     16      33.2553      0.00000

 k-point     8 :       0.2000    0.1000    0.0000
  band No.  band energies     occupation 
      1       3.2641      1.00000
      2       5.6788      1.00000
      3       6.2941      1.00000
      4       6.4260      1.00000
      5       7.2382      1.00000
      6       7.2412      1.00000
      7       7.6954      1.00000
      8       7.9186      1.00000
      9       8.2161      1.00000
     10       8.5128      1.00000
     11       8.9974      1.00000
     12      14.3561      0.00000
     13      16.4615      0.00000
     14      22.1632      0.00000
     15      24.7309      0.00000
     16      29.5829      0.00000

 k-point     9 :       0.3000    0.1000    0.0000
  band No.  band energies     occupation 
      1       4.5747      1.00000
      2       5.5739      1.00000
      3       5.7800      1.00000
      4       6.5636      1.00000
      5       7.0780      1.00000
      6       7.3954      1.00000
      7       7.4651      1.00000
      8       8.4298      1.00000
      9       8.7415      1.00000
     10       9.0255      1.00000
     11       9.3354      1.00000
     12      16.5542      0.00000
     13      16.6250      0.00000
     14      18.9753      0.00000
     15      23.2036      0.00000
     16      26.0125      0.00000

 k-point    10 :       0.4000    0.1000    0.0000
  band No.  band energies     occupation 
      1       5.2210      1.00000
      2       5.3753      1.00000
      3       5.5208      1.00000
      4       6.9899      1.00000
      5       7.0223      1.00000
      6       7.2865      1.00000
      7       7.5963      1.00000
      8       8.9059      1.00000
      9       9.0177      1.00000
     10       9.0375      1.00000
     11      10.7661      0.00000
     12      13.9742      0.00000
     13      18.9512      0.00000
     14      19.6731      0.00000
     15      22.2297      0.00000
     16      23.0399      0.00000

 k-point    11 :       0.2000    0.2000    0.0000
  band No.  band energies     occupation 
      1       4.4970      1.00000
      2       5.8972      1.00000
      3       5.9383      1.00000
      4       6.1058      1.00000
      5       6.9905      1.00000
      6       7.3596      1.00000
      7       7.5490      1.00000
      8       8.1069      1.00000
      9       8.7466      1.00000
     10       8.9736      1.00000
     11       9.3649      1.00000
     12      16.3249      0.00000
     13      17.1177      0.00000
     14      20.3511      0.00000
     15      20.8617      0.00000
     16      28.0766      0.00000

 k-point    12 :       0.3000    0.2000    0.0000
  band No.  band energies     occupation 
      1       5.4501      1.00000
      2       5.6455      1.00000
      3       5.7569      1.00000
      4       6.3349      1.00000
      5       6.9063      1.00000
      6       7.3110      1.00000
      7       7.5942      1.00000
      8       8.4685      1.00000
      9       8.9525      1.00000
     10       9.0215      1.00000
     11      10.7034      0.00000
     12      16.1250      0.00000
     13      18.6458      0.00000
     14      18.7817      0.00000
     15      20.0326      0.00000
     16      24.9364      0.00000

 k-point    13 :       0.4000    0.2000    0.0000
  band No.  band energies     occupation 
      1       5.5607      1.00000
      2       5.6487      1.00000
      3       5.6492      1.00000
      4       6.6200      1.00000
      5       6.9355      1.00000
      6       7.1581      1.00000
      7       7.7108      1.00000
      8       8.7887      1.00000
      9       8.9443      1.00000
     10       8.9722      1.00000
     11      12.3800      0.00000
     12      13.6955      0.00000
     13      18.7744      0.00000
     14      20.5126      0.00000
     15      20.7944      0.00000
     16      22.7312      0.00000

 k-point    14 :       0.3000    0.3000    0.0000
  band No.  band energies     occupation 
      1       5.6057      1.00000
      2       5.8440      1.00000
      3       5.9973      1.00000
      4       6.2286      1.00000
      5       6.9006      1.00000
      6       7.0852      1.00000
      7       7.7975      1.00000
      8       8.6374      1.00000
      9       8.8980      1.00000
     10       8.9326      1.00000
     11      12.7615      0.00000
     12      15.6858      0.00000
     13      15.7002      0.00000
     14      21.0411      0.00000
     15      21.2595      0.00000
     16      23.8213      0.00000

 k-point    15 :       0.0000    0.0000    0.1250
  band No.  band energies     occupation 
      1       1.2301      1.00000
      2       4.7625      1.00000
      3       7.1543      1.00000
      4       7.1736      1.00000
      5       7.1736      1.00000
      6       7.4661      1.00000
      7       7.4661      1.00000
      8       7.9300      1.00000
      9       7.9300      1.00000
     10       8.8703      1.00000
     11       8.8703      1.00000
     12       9.1160      1.00000
     13      16.7625      0.00000
     14      31.4558      0.00000
     15      33.5246      0.00000
     16      33.8808      0.00000

 k-point    16 :       0.1000   -0.0000    0.1250
  band No.  band energies     occupation 
      1       1.5672      1.00000
      2       4.9721      1.00000
      3       6.9447      1.00000
      4       7.2899      1.00000
      5       7.3091      1.00000
      6       7.3133      1.00000
      7       7.5942      1.00000
      8       7.7450      1.00000
      9       7.8651      1.00000
     10       8.0266      1.00000
     11       8.9035      1.00000
     12      10.4393      0.00000
     13      16.9012      0.00000
     14      28.8817      0.00000
     15      31.3533      0.00000
     16      31.6041      0.00000

 k-point    17 :       0.2000   -0.0000    0.1250
  band No.  band energies     occupation 
      1       2.5200      1.00000
      2       5.4351      1.00000
      3       6.6168      1.00000
      4       6.6846      1.00000
      5       7.1870      1.00000
      6       7.4925      1.00000
      7       7.6122      1.00000
      8       7.8609      1.00000
      9       7.9843      1.00000
     10       7.9923      1.00000
     11       8.9656      1.00000
     12      12.0439      0.00000
     13      17.3793      0.00000
     14      24.3261      0.00000
     15      28.6813      0.00000
     16      29.8291      0.00000

 k-point    18 :       0.3000    0.0000    0.1250
  band No.  band energies     occupation 
      1       3.8304      1.00000
      2       5.5772      1.00000
      3       6.0021      1.00000
      4       6.6109      1.00000
      5       7.1767      1.00000
      6       7.3384      1.00000
      7       7.6448      1.00000
      8       8.3653      1.00000
      9       8.4212      1.00000
     10       8.4562      1.00000
     11       9.0162      1.00000
     12      13.6954      0.00000
     13      18.1855      0.00000
     14      20.2872      0.00000
     15      26.3092      0.00000
     16      26.5189      0.00000

 k-point    19 :       0.4000    0.0000    0.1250
  band No.  band energies     occupation 
      1       4.7787      1.00000
      2       5.3413      1.00000
      3       5.7588      1.00000
      4       6.6119      1.00000
      5       7.1864      1.00000
      6       7.4911      1.00000
      7       7.8429      1.00000
      8       8.8212      1.00000
      9       8.8759      1.00000
     10       9.0651      1.00000
     11       9.4813      1.00000
     12      14.4882      0.00000
     13      17.2018      0.00000
     14      19.9209      0.00000
     15      23.2593      0.00000
     16      25.0670      0.00000

 k-point    20 :       0.5000    0.0000    0.1250
  band No.  band energies     occupation 
      1       4.9807      1.00000
      2       5.1991      1.00000
      3       5.7457      1.00000
      4       6.6383      1.00000
      5       7.1292      1.00000
      6       7.6043      1.00000
      7       8.0682      1.00000
      8       8.9471      1.00000
      9       9.0519      1.00000
     10       9.1360      1.00000
     11      10.8887      0.00000
     12      12.8414      0.00000
     13      18.6201      0.00000
     14      18.9594      0.00000
     15      23.3657      0.00000
     16      24.2258      0.00000

 k-point    21 :       0.1000    0.1000    0.1250
  band No.  band energies     occupation 
      1       2.2151      1.00000
      2       5.3274      1.00000
      3       6.7030      1.00000
      4       6.8434      1.00000
      5       7.3080      1.00000
      6       7.3861      1.00000
      7       7.5865      1.00000
      8       7.7364      1.00000
      9       7.9678      1.00000
     10       7.9775      1.00000
     11       8.9382      1.00000
     12      11.6093      0.00000
     13      17.2152      0.00000
     14      26.4823      0.00000
     15      27.0659      0.00000
     16      32.1057      0.00000

 k-point    22 :       0.2000    0.1000    0.1250
  band No.  band energies     occupation 
      1       3.3793      1.00000
      2       5.7206      1.00000
      3       6.2023      1.00000
      4       6.4622      1.00000
      5       7.1232      1.00000
      6       7.3439      1.00000
      7       7.6177      1.00000
      8       7.9643      1.00000
      9       8.2900      1.00000
     10       8.4664      1.00000
     11       8.9878      1.00000
     12      13.1489      0.00000
     13      17.9493      0.00000
     14      22.3072      0.00000
     15      24.8856      0.00000
     16      28.4449      0.00000

 k-point    23 :       0.3000    0.1000    0.1250
  band No.  band energies     occupation 
      1       4.6052      1.00000
      2       5.6065      1.00000
      3       5.8095      1.00000
      4       6.4977      1.00000
      5       7.1146      1.00000
      6       7.4115      1.00000
      7       7.5561      1.00000
      8       8.4155      1.00000
      9       8.7830      1.00000
     10       8.9019      1.00000
     11       9.3697      1.00000
     12      14.6955      0.00000
     13      18.0586      0.00000
     14      19.7013      0.00000
     15      23.3470      0.00000
     16      24.8824      0.00000

 k-point    24 :       0.4000    0.1000    0.1250
  band No.  band energies     occupation 
      1       5.0807      1.00000
      2       5.3768      1.00000
      3       5.7931      1.00000
      4       6.5672      1.00000
      5       7.0545      1.00000
      6       7.6223      1.00000
      7       7.7261      1.00000
      8       8.8671      1.00000
      9       8.9610      1.00000
     10       9.0445      1.00000
     11      10.7567      0.00000
     12      13.8369      0.00000
     13      17.9333      0.00000
     14      20.0304      0.00000
     15      22.3579      0.00000
     16      23.2265      0.00000

 k-point    25 :       0.2000    0.2000    0.1250
  band No.  band energies     occupation 
      1       4.5615      1.00000
      2       5.8148      1.00000
      3       6.0504      1.00000
      4       6.1320      1.00000
      5       7.0315      1.00000
      6       7.3450      1.00000
      7       7.4841      1.00000
      8       8.1349      1.00000
      9       8.8011      1.00000
     10       8.8392      1.00000
     11       9.4322      1.00000
     12      14.6529      0.00000
     13      18.9717      0.00000
     14      20.5006      0.00000
     15      21.0564      0.00000
     16      26.9058      0.00000

 k-point    26 :       0.3000    0.2000    0.1250
  band No.  band energies     occupation 
      1       5.3753      1.00000
      2       5.7369      1.00000
      3       5.8121      1.00000
      4       6.3003      1.00000
      5       6.9817      1.00000
      6       7.2876      1.00000
      7       7.6098      1.00000
      8       8.4756      1.00000
      9       8.8376      1.00000
     10       9.0585      1.00000
     11      10.7673      0.00000
     12      15.6760      0.00000
     13      17.7189      0.00000
     14      19.5343      0.00000
     15      20.9133      0.00000
     16      23.9287      0.00000

 k-point    27 :       0.4000    0.2000    0.1250
  band No.  band energies     occupation 
      1       5.4026      1.00000
      2       5.6949      1.00000
      3       5.9069      1.00000
      4       6.4249      1.00000
      5       6.9119      1.00000
      6       7.3070      1.00000
      7       7.7401      1.00000
      8       8.7922      1.00000
      9       8.8182      1.00000
     10       9.0035      1.00000
     11      12.4755      0.00000
     12      13.6992      0.00000
     13      18.7175      0.00000
     14      19.7718      0.00000
     15      20.0138      0.00000
     16      23.8995      0.00000

 k-point    28 :       0.3000    0.3000    0.1250
[...]
      4       7.5735      1.00000
      5       9.7860      0.23420
      6       9.7860      0.23420
      7      10.0678      0.00000
      8      10.0678      0.00000
      9      11.0623      0.00000
     10      11.0623      0.00000
     11      11.9538      0.00000
     12      11.9538      0.00000
     13      17.6858      0.00000
     14      17.6858      0.00000
     15      27.9929      0.00000
     16      27.9929      0.00000

 k-point    63 :       0.1000    0.1000    0.5000
  band No.  band energies     occupation 
      1       4.2013      1.00000
      2       4.2013      1.00000
      3       8.0686      1.00000
      4       8.0686      1.00000
      5       8.6995      1.00000
      6       8.6995      1.00000
      7       9.2566      1.00000
      8       9.2566      1.00000
      9      10.4879      0.00000
     10      10.4879      0.00000
     11      10.7737      0.00000
     12      10.7737      0.00000
     13      25.5118      0.00000
     14      25.5118      0.00000
     15      28.2852      0.00000
     16      28.2852      0.00000

 k-point    64 :       0.2000    0.1000    0.5000
  band No.  band energies     occupation 
      1       5.1201      1.00000
      2       5.1201      1.00000
      3       7.8896      1.00000
      4       7.8896      1.00000
      5       8.5587      1.00000
      6       8.5587      1.00000
      7       9.5716      1.00000
      8       9.5716      1.00000
      9      10.6205      0.00000
     10      10.6205      0.00000
     11      11.0557      0.00000
     12      11.0557      0.00000
     13      24.5406      0.00000
     14      24.5406      0.00000
     15      26.4482      0.00000
     16      26.4482      0.00000

 k-point    65 :       0.3000    0.1000    0.5000
  band No.  band energies     occupation 
      1       5.8982      1.00000
      2       5.8982      1.00000
      3       7.7534      1.00000
      4       7.7534      1.00000
      5       8.8015      1.00000
      6       8.8015      1.00000
      7       9.7189      0.88004
      8       9.7189      0.88003
      9      10.9144      0.00000
     10      10.9144      0.00000
     11      11.5867      0.00000
     12      11.5867      0.00000
     13      20.8960      0.00000
     14      20.8960      0.00000
     15      26.1095      0.00000
     16      26.1095      0.00000

 k-point    66 :       0.4000    0.1000    0.5000
  band No.  band energies     occupation 
      1       6.1709      1.00000
      2       6.1709      1.00000
      3       7.6686      1.00000
      4       7.6686      1.00000
      5       9.1746      1.00000
      6       9.1746      1.00000
      7       9.9903      0.00000
      8       9.9903      0.00000
      9      10.9640      0.00000
     10      10.9640      0.00000
     11      12.5035      0.00000
     12      12.5035      0.00000
     13      18.2027      0.00000
     14      18.2027      0.00000
     15      25.4590      0.00000
     16      25.4590      0.00000

 k-point    67 :       0.2000    0.2000    0.5000
  band No.  band energies     occupation 
      1       5.9465      1.00000
      2       5.9465      1.00000
      3       7.8501      1.00000
      4       7.8501      1.00000
      5       8.3954      1.00000
      6       8.3954      1.00000
      7       9.6001      1.00000
      8       9.6001      1.00000
      9      10.9761      0.00000
     10      10.9761      0.00000
     11      11.6631      0.00000
     12      11.6631      0.00000
     13      22.8604      0.00000
     14      22.8604      0.00000
     15      23.6537      0.00000
     16      23.6537      0.00000

 k-point    68 :       0.3000    0.2000    0.5000
  band No.  band energies     occupation 
      1       6.4944      1.00000
      2       6.4944      1.00000
      3       7.8330      1.00000
      4       7.8330      1.00000
      5       8.4216      1.00000
      6       8.4216      1.00000
      7       9.6610      0.99753
      8       9.6610      0.99753
      9      10.9995      0.00000
     10      10.9995      0.00000
     11      13.0437      0.00000
     12      13.0437      0.00000
     13      19.7267      0.00000
     14      19.7267      0.00000
     15      22.4256      0.00000
     16      22.4256      0.00000

 k-point    69 :       0.4000    0.2000    0.5000
  band No.  band energies     occupation 
      1       6.6393      1.00000
      2       6.6393      1.00000
      3       7.8343      1.00000
      4       7.8343      1.00000
      5       8.4358      1.00000
      6       8.4358      1.00000
      7       9.8296      0.02523
      8       9.8296      0.02523
      9      10.9140      0.00000
     10      10.9140      0.00000
     11      14.1704      0.00000
     12      14.1704      0.00000
     13      17.9035      0.00000
     14      17.9036      0.00000
     15      22.0853      0.00000
     16      22.0853      0.00000

 k-point    70 :       0.3000    0.3000    0.5000
  band No.  band energies     occupation 
      1       7.0564      1.00000
      2       7.0564      1.00000
      3       7.7052      1.00000
      4       7.7052      1.00000
      5       8.1749      1.00000
      6       8.1750      1.00000
      7       9.6656      0.99634
      8       9.6656      0.99634
      9      10.8956      0.00000
     10      10.8956      0.00000
     11      15.0858      0.00000
     12      15.0858      0.00000
     13      18.3678      0.00000
     14      18.3678      0.00000
     15      20.0585      0.00000
     16      20.0585      0.00000


--------------------------------------------------------------------------------------------------------


 soft charge-density along one line, spin component           1
         0         1         2         3         4         5         6         7         8         9
 total charge-density along one line
 
 soft charge-density along one line, spin component           2
         0         1         2         3         4         5         6         7         8         9
 total charge-density along one line
 
 pseudopotential strength for first ion, spin component:           1
 -0.959   0.000   0.000  -0.000   0.000  -1.581   0.000   0.000
  0.000  -0.964   0.000  -0.000   0.000   0.000  -1.585   0.000
  0.000   0.000  -0.957   0.000  -0.000   0.000   0.000  -1.578
 -0.000  -0.000   0.000  -0.964  -0.000  -0.000  -0.000   0.000
  0.000   0.000  -0.000  -0.000  -0.959   0.000   0.000  -0.000
 -1.581   0.000   0.000  -0.000   0.000  -2.143   0.000   0.000
  0.000  -1.585   0.000  -0.000   0.000   0.000  -2.147   0.000
  0.000   0.000  -1.578   0.000  -0.000   0.000   0.000  -2.141
 -0.000  -0.000   0.000  -1.585  -0.000  -0.000  -0.000   0.000
  0.000   0.000  -0.000  -0.000  -1.581   0.000   0.000  -0.000
  0.000   0.000   0.000   0.000  -0.000   0.000   0.000   0.000
  0.000   0.000   0.000   0.000  -0.000   0.000   0.000   0.000
 -0.000  -0.000  -0.000   0.000  -0.001  -0.000  -0.000  -0.000
  0.000   0.000  -0.000  -0.000   0.000   0.000   0.000  -0.000
 -0.001   0.000   0.000   0.000  -0.000  -0.001   0.000   0.000
 -0.000  -0.000  -0.000   0.000  -0.001  -0.000  -0.000  -0.000
  0.000   0.000  -0.000  -0.000   0.000   0.000   0.000  -0.000
 -0.001   0.000   0.000   0.000  -0.000  -0.001   0.000   0.000
 pseudopotential strength for first ion, spin component:           2
  0.435  -0.000   0.000   0.000   0.000  -0.245  -0.000   0.000
 -0.000   0.443  -0.000  -0.000  -0.000  -0.000  -0.237  -0.000
  0.000  -0.000   0.423  -0.000  -0.000   0.000  -0.000  -0.256
  0.000  -0.000  -0.000   0.443   0.000   0.000  -0.000  -0.000
  0.000  -0.000  -0.000   0.000   0.435   0.000  -0.000  -0.000
 -0.245  -0.000   0.000   0.000   0.000  -0.864  -0.000   0.000
 -0.000  -0.237  -0.000  -0.000  -0.000  -0.000  -0.856  -0.000
  0.000  -0.000  -0.256  -0.000  -0.000   0.000  -0.000  -0.875
  0.000  -0.000  -0.000  -0.237   0.000   0.000  -0.000  -0.000
  0.000  -0.000  -0.000   0.000  -0.245   0.000  -0.000  -0.000
  0.000  -0.000   0.000  -0.000  -0.000   0.000  -0.000   0.000
  0.000  -0.000   0.000  -0.000  -0.000   0.000  -0.000   0.000
  0.000  -0.000   0.000   0.000  -0.000   0.000  -0.000   0.000
  0.000  -0.000  -0.000   0.000   0.000   0.000  -0.000  -0.000
 -0.000   0.000  -0.000   0.000   0.000  -0.000   0.000  -0.000
  0.000  -0.000   0.000   0.000  -0.000   0.000  -0.000   0.000
  0.000  -0.000  -0.000   0.000   0.000   0.000  -0.000  -0.000
 -0.000   0.000  -0.000   0.000   0.000  -0.000   0.000  -0.000
 total augmentation occupancy for first ion, spin component:           1
  2.912   0.000  -0.000   0.000  -0.000  -1.512  -0.000   0.000   0.000   0.000  -0.000   0.000  -0.000   0.000   0.041   0.000
  0.000   3.023   0.000   0.000  -0.000  -0.000  -1.563   0.000  -0.000   0.000  -0.000   0.000   0.000   0.000   0.000   0.000
 -0.000  -0.000   2.767   0.000   0.000   0.000   0.000  -1.452   0.000  -0.000  -0.019   0.000   0.000   0.000   0.000  -0.000
  0.000   0.000   0.000   3.023   0.000  -0.000  -0.000  -0.000  -1.563   0.000   0.000   0.000   0.000  -0.000   0.000   0.000
 -0.000  -0.000   0.000   0.000   2.912   0.000   0.000  -0.000   0.000  -1.512   0.000  -0.000   0.041  -0.000   0.000  -0.003
 -1.512  -0.000   0.000   0.000   0.000   1.657  -0.000  -0.000   0.000  -0.000   0.000  -0.000   0.000   0.000  -0.056  -0.000
  0.000  -1.563  -0.000  -0.000  -0.000  -0.000   1.648   0.000   0.000   0.000   0.000   0.000   0.000  -0.000  -0.000   0.000
  0.000  -0.000  -1.452  -0.000  -0.000  -0.000   0.000   1.683   0.000   0.000   0.020  -0.001  -0.000   0.000   0.000   0.000
  0.000  -0.000   0.000  -1.563  -0.000  -0.000   0.000   0.000   1.648   0.000   0.000   0.000   0.000   0.000  -0.000   0.000
  0.000  -0.000  -0.000   0.000  -1.512  -0.000  -0.000   0.000   0.000   1.657   0.000   0.000  -0.056   0.000  -0.000   0.004
 -0.000   0.000  -0.019   0.000   0.000   0.000   0.000   0.020  -0.000   0.000   2.213  -0.253  -0.000   0.000   0.000  -0.000
  0.000  -0.000   0.000   0.000   0.000  -0.000  -0.000  -0.001   0.000   0.000  -0.253   0.037  -0.000   0.000   0.000   0.000
 -0.000   0.000   0.000   0.000   0.041   0.000   0.000  -0.000   0.000  -0.056  -0.000   0.000   0.296   0.000   0.000  -0.028
  0.000  -0.000   0.000  -0.000  -0.000  -0.000  -0.000   0.000  -0.000   0.000   0.000   0.000   0.000   0.303   0.000   0.000
  0.041   0.000  -0.000   0.000   0.000  -0.056   0.000   0.000  -0.000  -0.000   0.000   0.000   0.000   0.000   0.296   0.000
  0.000   0.000  -0.000   0.000  -0.003  -0.000   0.000   0.000   0.000   0.004   0.000   0.000  -0.028  -0.000  -0.000   0.003
  0.000   0.000   0.000   0.000  -0.000  -0.000  -0.000   0.000  -0.000  -0.000   0.000   0.000   0.000  -0.029   0.000   0.000
 -0.003   0.000   0.000  -0.000  -0.000   0.004   0.000   0.000   0.000   0.000  -0.000   0.000   0.000   0.000  -0.028   0.000
 total augmentation occupancy for first ion, spin component:           2
  2.141   0.000  -0.000   0.000   0.000  -1.023   0.000   0.000   0.000   0.000   0.000  -0.000   0.000   0.000  -0.003  -0.000
  0.000   2.172   0.000   0.000  -0.000   0.000  -1.043  -0.000  -0.000   0.000  -0.000   0.000  -0.000   0.000  -0.000   0.000
 -0.000  -0.000   2.127  -0.000   0.000  -0.000   0.000  -1.014  -0.000  -0.000   0.001  -0.001  -0.000   0.000   0.000   0.000
 -0.000   0.000   0.000   2.172   0.000  -0.000  -0.000   0.000  -1.043  -0.000   0.000   0.000  -0.000   0.000   0.000   0.000
 -0.000   0.000   0.000   0.000   2.141   0.000  -0.000  -0.000   0.000  -1.023   0.000   0.000  -0.003   0.000  -0.000   0.000
 -1.023   0.000   0.000   0.000   0.000   0.296   0.000   0.000  -0.000  -0.000  -0.000   0.000  -0.000   0.000   0.007   0.000
  0.000  -1.043  -0.000  -0.000  -0.000   0.000   0.316   0.000   0.000   0.000   0.000   0.000   0.000  -0.000   0.000  -0.000
 -0.000  -0.000  -1.014   0.000  -0.000   0.000   0.000   0.277   0.000   0.000  -0.003   0.001   0.000   0.000   0.000   0.000
  0.000  -0.000  -0.000  -1.043   0.000  -0.000   0.000   0.000   0.316  -0.000   0.000   0.000  -0.000  -0.000   0.000   0.000
  0.000  -0.000  -0.000  -0.000  -1.023  -0.000  -0.000   0.000   0.000   0.296  -0.000   0.000   0.007  -0.000   0.000  -0.001
  0.000   0.000   0.001  -0.000   0.000  -0.000   0.000  -0.003   0.000   0.000  -0.297   0.091  -0.000   0.000   0.000   0.000
 -0.000   0.000  -0.001  -0.000   0.000   0.000   0.000   0.001  -0.000  -0.000   0.091  -0.015  -0.000   0.000   0.000   0.000
  0.000   0.000  -0.000   0.000  -0.003  -0.000   0.000   0.000  -0.000   0.007  -0.000   0.000  -0.033  -0.000   0.000   0.005
  0.000   0.000   0.000   0.000  -0.000  -0.000   0.000   0.000  -0.000   0.000   0.000   0.000   0.000  -0.037   0.000   0.000
 -0.003  -0.000   0.000  -0.000  -0.000   0.007  -0.000   0.000   0.000   0.000   0.000   0.000   0.000   0.000  -0.033   0.000
  0.000   0.000   0.000  -0.000   0.000   0.000   0.000  -0.000   0.000  -0.001   0.000  -0.000   0.005  -0.000   0.000  -0.001
  0.000   0.000   0.000  -0.000   0.000   0.000  -0.000   0.000   0.000  -0.000   0.000   0.000   0.000   0.005   0.000   0.000
  0.000   0.000   0.000  -0.000   0.000  -0.001   0.000   0.000   0.000  -0.000   0.000  -0.000   0.000   0.000   0.005   0.000


------------------------ aborting loop because EDIFF is reached ----------------------------------------





 total charge

# of ion       s       p       d       tot
------------------------------------------
    1        0.478   0.497   7.232   8.207
    2        0.478   0.497   7.232   8.207
--------------------------------------------------
tot          0.955   0.994  14.464  16.413



 magnetization (x)

# of ion       s       p       d       tot
------------------------------------------
    1       -0.013  -0.051   1.779   1.715
    2       -0.013  -0.051   1.779   1.715
--------------------------------------------------
tot         -0.025  -0.102   3.557   3.430
 
    CHARGE:  cpu time      0.0181: real time      0.0182
    FORLOC:  cpu time      0.0001: real time      0.0001
    FORNL :  cpu time      0.0175: real time      0.0175
    STRESS:  cpu time      0.0521: real time      0.0522
    FORCOR:  cpu time      0.0040: real time      0.0040
    FORHAR:  cpu time      0.0004: real time      0.0004
    MIXING:  cpu time      0.0002: real time      0.0002
    OFIELD:  cpu time      0.0000: real time      0.0000

  FORCE on cell =-STRESS in cart. coord.  units (eV):
  Direction    XX          YY          ZZ          XY          YZ          ZX
  --------------------------------------------------------------------------------------
  Alpha Z    75.57298    75.57298    75.57298
  Ewald    -503.99397  -503.99397  -497.20294     0.00000     0.00000     0.00000
  Hartree    89.43190    89.43190    92.59789    -0.00000    -0.00000    -0.00000
  E(xc)     -92.33618   -92.33617   -92.33953     0.00000    -0.00000    -0.00000
  Local     -21.62504   -21.62517   -31.29390    -0.00011    -0.00000    -0.00000
  n-local   -10.67952   -10.31753   -10.49680    -6.07173     1.72421     1.68681
  augment   311.41804   311.41816   311.27893     0.00010    -0.00000    -0.00000
  Kinetic   152.49283   149.77140   150.97114     4.27609     0.21910     0.84455
  Fock        0.00000     0.00000     0.00000     0.00000     0.00000     0.00000
  -------------------------------------------------------------------------------------
  Total      -0.89868    -0.89868    -0.91224    -0.00000     0.00000     0.00000
  in kB     -64.22311   -64.22311   -65.19164    -0.00000     0.00000     0.00000
  external pressure =      -64.55 kB  Pullay stress =        0.00 kB


 VOLUME and BASIS-vectors are now :
 -----------------------------------------------------------------------------
  energy-cutoff  :      400.00
  volume of cell :       22.42
      direct lattice vectors                 reciprocal lattice vectors
     2.519856663  0.000000000  0.000000000     0.396847969  0.229120282  0.000000000
    -1.259928332  2.182259884  0.000000000     0.000000000  0.458240564  0.000000000
     0.000000000  0.000000000  4.077025525     0.000000000  0.000000000  0.245276855

  length of vectors
     2.519856663  2.519856663  4.077025525     0.458240564  0.458240564  0.245276855


 FORCES acting on ions
    electron-ion (+dipol)            ewald-force                    non-local-force                 convergence-correction
 -----------------------------------------------------------------------------------------------
   -.538E-05 0.311E-05 -.526E-13   0.103E-11 -.586E-12 -.233E-13   0.208E-16 0.694E-17 0.000E+00   0.204E-08 -.118E-08 0.544E-13
   -.435E-05 0.251E-05 -.106E-11   -.103E-11 0.595E-12 0.233E-13   -.191E-16 -.694E-17 0.000E+00   -.202E-08 0.117E-08 0.985E-14
 -----------------------------------------------------------------------------------------------
   -.974E-05 0.562E-05 -.111E-11   -.278E-14 0.894E-14 0.000E+00   0.173E-17 0.000E+00 0.000E+00   0.245E-10 -.142E-10 0.643E-13
 
 
 POSITION                                       TOTAL-FORCE (eV/Angst)
 -----------------------------------------------------------------------------------
      0.00000      0.00000      0.00000         0.000000     -0.000000      0.000000
      0.00000      1.45484      2.03851        -0.000000      0.000000      0.000000
 -----------------------------------------------------------------------------------
    total drift:                               -0.000010      0.000006     -0.000000


--------------------------------------------------------------------------------------------------------



  FREE ENERGIE OF THE ION-ELECTRON SYSTEM (eV)
  ---------------------------------------------------
  free  energy   TOTEN  =       -14.06120718 eV

  energy  without entropy=      -14.05834425  energy(sigma->0) =      -14.05977572
 


--------------------------------------------------------------------------------------------------------


    POTLOK:  cpu time      0.0092: real time      0.0093


--------------------------------------------------------------------------------------------------------




--------------------------------------------------------------------------------------------------------


  
 reached required accuracy - stopping structural energy minimisation
 writing wavefunctions
     LOOP+:  cpu time      6.5328: real time      6.6725
    4ORBIT:  cpu time      0.0000: real time      0.0000



 total charge

# of ion       s       p       d       tot
------------------------------------------
    1        0.478   0.497   7.232   8.207
    2        0.478   0.497   7.232   8.207
--------------------------------------------------
tot          0.955   0.994  14.464  16.413



 magnetization (x)

# of ion       s       p       d       tot
------------------------------------------
    1       -0.013  -0.051   1.779   1.715
    2       -0.013  -0.051   1.779   1.715
--------------------------------------------------
tot         -0.025  -0.102   3.557   3.430
 

 total amount of memory used by VASP MPI-rank0    32186. kBytes
=======================================================================

   base      :      30000. kBytes
   nonl-proj :        768. kBytes
   fftplans  :        153. kBytes
   grid      :        374. kBytes
   one-center:         31. kBytes
   wavefun   :        860. kBytes
 
  
  
 General timing and accounting informations for this job:
 ========================================================
  
                  Total CPU time used (sec):        7.483
                            User time (sec):        6.957
                          System time (sec):        0.527
                         Elapsed time (sec):        9.347
  
                   Maximum memory used (kb):      224296.
                   Average memory used (kb):          N/A
  
                          Minor page faults:        20737
                          Major page faults:           77
                 Voluntary context switches:         2211
