PROCAR lm decomposed
# of k-points:   70         # of bands:   16         # of ions:    2

 k-point     1 :    0.00000000 0.00000000 0.00000000     weight = 0.00125000

band     1 # energy    1.07643305 # occ.  1.00000000
 
ion      s     py     pz     px    dxy    dyz    dz2    dxz  x2-y2    tot
    1  0.349  0.000  0.000  0.000  0.000  0.000  0.000  0.000  0.000  0.349
    2  0.349  0.000  0.000  0.000  0.000  0.000  0.000  0.000  0.000  0.349
tot    0.698  0.000  0.000  0.000  0.000  0.000  0.000  0.000  0.000  0.698
 
band     2 # energy    4.79453655 # occ.  1.00000000
 
ion      s     py     pz     px    dxy    dyz    dz2    dxz  x2-y2    tot
    1  0.077  0.000  0.000  0.000  0.000  0.000  0.364  0.000  0.000  0.441
    2  0.077  0.000  0.000  0.000  0.000  0.000  0.364  0.000  0.000  0.441
tot    0.154  0.000  0.000  0.000  0.000  0.000  0.728  0.000  0.000  0.882
 
band     3 # energy    7.19217546 # occ.  1.00000000
 
ion      s     py     pz     px    dxy    dyz    dz2    dxz  x2-y2    tot
    1  0.000  0.000  0.000  0.000  0.000  0.000  0.484  0.000  0.000  0.484
    2  0.000  0.000  0.000  0.000  0.000  0.000  0.484  0.000  0.000  0.484
tot    0.000  0.000  0.000  0.000  0.000  0.000  0.969  0.000  0.000  0.969
 
band     4 # energy    7.21297338 # occ.  1.00000000
 
ion      s     py     pz     px    dxy    dyz    dz2    dxz  x2-y2    tot
    1  0.000  0.000  0.000  0.000  0.361  0.000  0.000  0.000  0.120  0.482
    2  0.000  0.000  0.000  0.000  0.361  0.000  0.000  0.000  0.120  0.482
tot    0.000  0.000  0.000  0.001  0.722  0.000  0.000  0.000  0.241  0.963
 
band     5 # energy    7.21297466 # occ.  1.00000000
 
ion      s     py     pz     px    dxy    dyz    dz2    dxz  x2-y2    tot
    1  0.000  0.000  0.000  0.000  0.120  0.000  0.000  0.000  0.361  0.482
    2  0.000  0.000  0.000  0.000  0.120  0.000  0.000  0.000  0.361  0.482
tot    0.000  0.001  0.000  0.000  0.241  0.000  0.000  0.000  0.722  0.963
 
band     6 # energy    7.50619692 # occ.  1.00000000
 
ion      s     py     pz     px    dxy    dyz    dz2    dxz  x2-y2    tot
    1  0.000  0.000  0.000  0.000  0.364  0.000  0.000  0.000  0.121  0.486
    2  0.000  0.000  0.000  0.000  0.364  0.000  0.000  0.000  0.121  0.486
tot    0.000  0.000  0.000  0.001  0.728  0.000  0.000  0.000  0.243  0.972
 
band     7 # energy    7.50619823 # occ.  1.00000000
 
ion      s     py     pz     px    dxy    dyz    dz2    dxz  x2-y2    tot
    1  0.000  0.000  0.000  0.000  0.121  0.000  0.000  0.000  0.364  0.486
    2  0.000  0.000  0.000  0.000  0.121  0.000  0.000  0.000  0.364  0.486
tot    0.000  0.001  0.000  0.000  0.243  0.000  0.000  0.000  0.728  0.972
 
band     8 # energy    7.83798477 # occ.  1.00000000
 
ion      s     py     pz     px    dxy    dyz    dz2    dxz  x2-y2    tot
    1  0.000  0.000  0.000  0.000  0.000  0.367  0.000  0.122  0.000  0.489
    2  0.000  0.000  0.000  0.000  0.000  0.367  0.000  0.122  0.000  0.489
tot    0.000  0.000  0.000  0.000  0.000  0.733  0.000  0.244  0.000  0.978
 
band     9 # energy    7.83798527 # occ.  1.00000000
 
ion      s     py     pz     px    dxy    dyz    dz2    dxz  x2-y2    tot
    1  0.000  0.000  0.000  0.000  0.000  0.122  0.000  0.367  0.000  0.489
    2  0.000  0.000  0.000  0.000  0.000  0.122  0.000  0.367  0.000  0.489
tot    0.000  0.000  0.000  0.000  0.000  0.244  0.000  0.733  0.000  0.978
 
band    10 # energy    8.87848201 # occ.  1.00000000
 
ion      s     py     pz     px    dxy    dyz    dz2    dxz  x2-y2    tot
    1  0.000  0.000  0.000  0.000  0.000  0.369  0.000  0.123  0.000  0.492
    2  0.000  0.000  0.000  0.000  0.000  0.369  0.000  0.123  0.000  0.492
tot    0.000  0.000  0.000  0.000  0.000  0.739  0.000  0.246  0.000  0.985
 
band    11 # energy    8.87848268 # occ.  1.00000000
 
ion      s     py     pz     px    dxy    dyz    dz2    dxz  x2-y2    tot
    1  0.000  0.000  0.000  0.000  0.000  0.123  0.000  0.369  0.000  0.492
    2  0.000  0.000  0.000  0.000  0.000  0.123  0.000  0.369  0.000  0.492
tot    0.000  0.000  0.000  0.000  0.000  0.246  0.000  0.739  0.000  0.985
 
band    12 # energy    9.73624675 # occ.  0.75285652
 
ion      s     py     pz     px    dxy    dyz    dz2    dxz  x2-y2    tot
    1  0.000  0.000  0.331  0.000  0.000  0.000  0.000  0.000  0.000  0.331
    2  0.000  0.000  0.331  0.000  0.000  0.000  0.000  0.000  0.000  0.331
tot    0.000  0.000  0.661  0.000  0.000  0.000  0.000  0.000  0.000  0.661
 
band    13 # energy   15.83391345 # occ.  0.00000000
 
ion      s     py     pz     px    dxy    dyz    dz2    dxz  x2-y2    tot
    1  0.223  0.000  0.000  0.000  0.000  0.000  0.222  0.000  0.000  0.445
    2  0.223  0.000  0.000  0.000  0.000  0.000  0.222  0.000  0.000  0.445
tot    0.446  0.000  0.000  0.000  0.000  0.000  0.443  0.000  0.000  0.889
 
band    14 # energy   31.50515907 # occ.  0.00000000
 
ion      s     py     pz     px    dxy    dyz    dz2    dxz  x2-y2    tot
    1  0.007  0.000  0.000  0.000  0.000  0.000  0.032  0.000  0.000  0.039
    2  0.007  0.000  0.000  0.000  0.000  0.000  0.032  0.000  0.000  0.039
tot    0.013  0.000  0.000  0.000  0.000  0.000  0.065  0.000  0.000  0.078
 
band    15 # energy   33.73861899 # occ.  0.00000000
 
ion      s     py     pz     px    dxy    dyz    dz2    dxz  x2-y2    tot
    1  0.000  0.058  0.000  0.213  0.087  0.000  0.000  0.000  0.024  0.382
    2  0.000  0.058  0.000  0.213  0.087  0.000  0.000  0.000  0.024  0.382
tot    0.000  0.116  0.000  0.427  0.174  0.000  0.000  0.000  0.047  0.764
 
band    16 # energy   33.73862483 # occ.  0.00000000
 
ion      s     py     pz     px    dxy    dyz    dz2    dxz  x2-y2    tot
    1  0.000  0.213  0.000  0.058  0.024  0.000  0.000  0.000  0.087  0.382
    2  0.000  0.213  0.000  0.058  0.024  0.000  0.000  0.000  0.087  0.382
tot    0.000  0.427  0.000  0.116  0.047  0.000  0.000  0.000  0.174  0.764
 

 k-point     2 :    0.10000000-0.00000000 0.00000000     weight = 0.00750000

band     1 # energy    1.41684106 # occ.  1.00000000
 
ion      s     py     pz     px    dxy    dyz    dz2    dxz  x2-y2    tot
    1  0.338  0.003  0.000  0.008  0.000  0.000  0.000  0.000  0.000  0.350
    2  0.338  0.003  0.000  0.008  0.000  0.000  0.000  0.000  0.000  0.350
tot    0.676  0.006  0.000  0.017  0.000  0.000  0.000  0.000  0.000  0.699
 
band     2 # energy    4.99217035 # occ.  1.00000000
 
ion      s     py     pz     px    dxy    dyz    dz2    dxz  x2-y2    tot
    1  0.067  0.002  0.000  0.005  0.003  0.000  0.365  0.000  0.001  0.443
    2  0.067  0.002  0.000  0.005  0.003  0.000  0.365  0.000  0.001  0.443
tot    0.134  0.003  0.000  0.010  0.006  0.000  0.730  0.000  0.002  0.885
 
band     3 # energy    6.94207525 # occ.  1.00000000
 
ion      s     py     pz     px    dxy    dyz    dz2    dxz  x2-y2    tot
    1  0.000  0.000  0.000  0.001  0.243  0.000  0.153  0.000  0.081  0.478
    2  0.000  0.000  0.000  0.001  0.243  0.000  0.153  0.000  0.081  0.478
tot    0.000  0.001  0.000  0.002  0.485  0.000  0.307  0.000  0.162  0.957
 
band     4 # energy    7.36660538 # occ.  1.00000000
 
ion      s     py     pz     px    dxy    dyz    dz2    dxz  x2-y2    tot
    1  0.000  0.001  0.000  0.000  0.120  0.000  0.000  0.000  0.361  0.482
    2  0.000  0.001  0.000  0.000  0.120  0.000  0.000  0.000  0.361  0.482
tot    0.000  0.002  0.000  0.001  0.240  0.000  0.000  0.000  0.721  0.964
 
band     5 # energy    7.39270668 # occ.  1.00000000
 
ion      s     py     pz     px    dxy    dyz    dz2    dxz  x2-y2    tot
    1  0.001  0.000  0.000  0.001  0.233  0.000  0.173  0.000  0.078  0.484
    2  0.001  0.000  0.000  0.001  0.233  0.000  0.173  0.000  0.078  0.484
tot    0.001  0.000  0.000  0.001  0.465  0.000  0.346  0.000  0.155  0.969
 
band     6 # energy    7.47018060 # occ.  1.00000000
 
ion      s     py     pz     px    dxy    dyz    dz2    dxz  x2-y2    tot
    1  0.001  0.000  0.000  0.000  0.241  0.000  0.161  0.000  0.080  0.485
    2  0.001  0.000  0.000  0.000  0.242  0.000  0.161  0.000  0.081  0.485
tot    0.002  0.000  0.000  0.001  0.483  0.000  0.322  0.000  0.161  0.969
 
band     7 # energy    7.60917183 # occ.  1.00000000
 
ion      s     py     pz     px    dxy    dyz    dz2    dxz  x2-y2    tot
    1  0.000  0.000  0.022  0.000  0.000  0.113  0.000  0.338  0.000  0.473
    2  0.000  0.000  0.022  0.000  0.000  0.113  0.000  0.338  0.000  0.473
tot    0.000  0.000  0.044  0.000  0.000  0.225  0.000  0.676  0.000  0.946
 
band     8 # energy    7.64161163 # occ.  1.00000000
 
ion      s     py     pz     px    dxy    dyz    dz2    dxz  x2-y2    tot
    1  0.000  0.001  0.000  0.000  0.121  0.000  0.000  0.000  0.364  0.487
    2  0.000  0.001  0.000  0.000  0.121  0.000  0.000  0.000  0.364  0.487
tot    0.000  0.002  0.000  0.001  0.243  0.000  0.000  0.000  0.728  0.973
 
band     9 # energy    7.74440936 # occ.  1.00000000
 
ion      s     py     pz     px    dxy    dyz    dz2    dxz  x2-y2    tot
    1  0.000  0.000  0.000  0.000  0.000  0.366  0.000  0.122  0.000  0.487
    2  0.000  0.000  0.000  0.000  0.000  0.366  0.000  0.122  0.000  0.487
tot    0.000  0.000  0.000  0.000  0.000  0.731  0.000  0.244  0.000  0.975
 
band    10 # energy    8.06009891 # occ.  1.00000000
 
ion      s     py     pz     px    dxy    dyz    dz2    dxz  x2-y2    tot
    1  0.000  0.000  0.069  0.000  0.000  0.096  0.000  0.288  0.000  0.453
    2  0.000  0.000  0.069  0.000  0.000  0.096  0.000  0.288  0.000  0.453
tot    0.000  0.000  0.138  0.000  0.000  0.192  0.000  0.576  0.000  0.906
 
band    11 # energy    8.91727029 # occ.  1.00000000
 
ion      s     py     pz     px    dxy    dyz    dz2    dxz  x2-y2    tot
    1  0.000  0.000  0.000  0.000  0.000  0.370  0.000  0.123  0.000  0.493
    2  0.000  0.000  0.000  0.000  0.000  0.370  0.000  0.123  0.000  0.493
tot    0.000  0.000  0.000  0.000  0.000  0.740  0.000  0.247  0.000  0.986
 
band    12 # energy   11.02182132 # occ.  0.00000000
 
ion      s     py     pz     px    dxy    dyz    dz2    dxz  x2-y2    tot
    1  0.000  0.000  0.235  0.000  0.000  0.038  0.000  0.113  0.000  0.386
    2  0.000  0.000  0.235  0.000  0.000  0.038  0.000  0.113  0.000  0.386
tot    0.000  0.000  0.470  0.000  0.000  0.075  0.000  0.226  0.000  0.772
 
band    13 # energy   15.90054890 # occ.  0.00000000
 
ion      s     py     pz     px    dxy    dyz    dz2    dxz  x2-y2    tot
    1  0.218  0.003  0.000  0.008  0.000  0.000  0.213  0.000  0.000  0.441
    2  0.218  0.003  0.000  0.008  0.000  0.000  0.213  0.000  0.000  0.441
tot    0.435  0.005  0.000  0.015  0.000  0.000  0.426  0.000  0.000  0.882
 
band    14 # energy   28.77824213 # occ.  0.00000000
 
ion      s     py     pz     px    dxy    dyz    dz2    dxz  x2-y2    tot
    1  0.019  0.030  0.000  0.091  0.112  0.000  0.022  0.000  0.037  0.312
    2  0.019  0.030  0.000  0.091  0.112  0.000  0.022  0.000  0.037  0.312
tot    0.038  0.061  0.000  0.182  0.224  0.000  0.045  0.000  0.075  0.624
 
band    15 # energy   31.19792617 # occ.  0.00000000
 
ion      s     py     pz     px    dxy    dyz    dz2    dxz  x2-y2    tot
    1  0.000  0.178  0.000  0.059  0.037  0.000  0.000  0.000  0.112  0.387
    2  0.000  0.178  0.000  0.059  0.037  0.000  0.000  0.000  0.112  0.387
tot    0.000  0.355  0.000  0.118  0.075  0.000  0.000  0.000  0.225  0.773
 
band    16 # energy   31.63605610 # occ.  0.00000000
 
ion      s     py     pz     px    dxy    dyz    dz2    dxz  x2-y2    tot
    1  0.023  0.015  0.000  0.046  0.072  0.000  0.042  0.000  0.024  0.222
    2  0.023  0.015  0.000  0.046  0.072  0.000  0.042  0.000  0.024  0.222
tot    0.046  0.031  0.000  0.093  0.143  0.000  0.083  0.000  0.048  0.444
 

 k-point     3 :    0.20000000-0.00000000 0.00000000     weight = 0.00750000

band     1 # energy    2.38374085 # occ.  1.00000000
 
ion      s     py     pz     px    dxy    dyz    dz2    dxz  x2-y2    tot
    1  0.303  0.010  0.000  0.030  0.005  0.000  0.002  0.000  0.002  0.352
    2  0.303  0.010  0.000  0.030  0.005  0.000  0.002  0.000  0.002  0.352
tot    0.607  0.020  0.000  0.060  0.009  0.000  0.004  0.000  0.003  0.704
 
band     2 # energy    5.42097042 # occ.  1.00000000
 
ion      s     py     pz     px    dxy    dyz    dz2    dxz  x2-y2    tot
    1  0.039  0.004  0.000  0.013  0.041  0.000  0.338  0.000  0.014  0.449
    2  0.039  0.004  0.000  0.013  0.041  0.000  0.338  0.000  0.014  0.449
tot    0.079  0.009  0.000  0.026  0.082  0.000  0.676  0.000  0.027  0.898
 
band     3 # energy    6.65151779 # occ.  1.00000000
 
ion      s     py     pz     px    dxy    dyz    dz2    dxz  x2-y2    tot
    1  0.001  0.003  0.000  0.008  0.258  0.000  0.114  0.000  0.086  0.469
    2  0.001  0.003  0.000  0.008  0.258  0.000  0.114  0.000  0.086  0.469
tot    0.001  0.005  0.000  0.015  0.515  0.000  0.229  0.000  0.172  0.937
 
band     4 # energy    6.74786308 # occ.  1.00000000
 
ion      s     py     pz     px    dxy    dyz    dz2    dxz  x2-y2    tot
    1  0.000  0.000  0.054  0.000  0.000  0.098  0.000  0.293  0.000  0.445
    2  0.000  0.000  0.054  0.000  0.000  0.098  0.000  0.293  0.000  0.445
tot    0.000  0.000  0.109  0.000  0.000  0.195  0.000  0.585  0.000  0.889
 
band     5 # energy    7.25008128 # occ.  1.00000000
 
ion      s     py     pz     px    dxy    dyz    dz2    dxz  x2-y2    tot
    1  0.006  0.001  0.000  0.002  0.298  0.000  0.073  0.000  0.099  0.479
    2  0.006  0.001  0.000  0.002  0.298  0.000  0.073  0.000  0.099  0.479
tot    0.012  0.001  0.000  0.004  0.596  0.000  0.146  0.000  0.199  0.959
 
band     6 # energy    7.52879940 # occ.  1.00000000
 
ion      s     py     pz     px    dxy    dyz    dz2    dxz  x2-y2    tot
    1  0.000  0.000  0.000  0.000  0.000  0.364  0.000  0.121  0.000  0.485
    2  0.000  0.000  0.000  0.000  0.000  0.364  0.000  0.121  0.000  0.485
tot    0.000  0.000  0.000  0.000  0.000  0.727  0.000  0.242  0.000  0.970
 
band     7 # energy    7.73200244 # occ.  1.00000000
 
ion      s     py     pz     px    dxy    dyz    dz2    dxz  x2-y2    tot
    1  0.000  0.000  0.028  0.000  0.000  0.111  0.000  0.334  0.000  0.473
    2  0.000  0.000  0.028  0.000  0.000  0.111  0.000  0.334  0.000  0.473
tot    0.000  0.000  0.055  0.000  0.000  0.223  0.000  0.669  0.000  0.947
 
band     8 # energy    7.78715007 # occ.  1.00000000
 
ion      s     py     pz     px    dxy    dyz    dz2    dxz  x2-y2    tot
    1  0.000  0.002  0.000  0.001  0.120  0.000  0.000  0.000  0.361  0.484
    2  0.000  0.002  0.000  0.001  0.120  0.000  0.000  0.000  0.361  0.484
tot    0.000  0.003  0.000  0.001  0.241  0.000  0.000  0.000  0.722  0.967
 
band     9 # energy    7.80756658 # occ.  1.00000000
 
ion      s     py     pz     px    dxy    dyz    dz2    dxz  x2-y2    tot
    1  0.002  0.001  0.000  0.002  0.106  0.000  0.339  0.000  0.035  0.485
    2  0.002  0.001  0.000  0.002  0.106  0.000  0.339  0.000  0.035  0.485
tot    0.005  0.001  0.000  0.004  0.212  0.000  0.678  0.000  0.071  0.970
 
band    10 # energy    8.00971069 # occ.  1.00000000
 
ion      s     py     pz     px    dxy    dyz    dz2    dxz  x2-y2    tot
    1  0.000  0.002  0.000  0.001  0.121  0.000  0.000  0.000  0.364  0.488
    2  0.000  0.002  0.000  0.001  0.121  0.000  0.000  0.000  0.364  0.488
tot    0.000  0.003  0.000  0.001  0.243  0.000  0.000  0.000  0.729  0.976
 
band    11 # energy    8.99052755 # occ.  1.00000000
 
ion      s     py     pz     px    dxy    dyz    dz2    dxz  x2-y2    tot
    1  0.000  0.000  0.000  0.000  0.000  0.371  0.000  0.124  0.000  0.495
    2  0.000  0.000  0.000  0.000  0.000  0.371  0.000  0.124  0.000  0.495
tot    0.000  0.000  0.000  0.000  0.000  0.742  0.000  0.247  0.000  0.989
 
band    12 # energy   12.94469894 # occ.  0.00000000
 
ion      s     py     pz     px    dxy    dyz    dz2    dxz  x2-y2    tot
    1  0.000  0.000  0.232  0.000  0.000  0.040  0.000  0.121  0.000  0.394
    2  0.000  0.000  0.232  0.000  0.000  0.040  0.000  0.121  0.000  0.394
tot    0.000  0.000  0.465  0.000  0.000  0.081  0.000  0.242  0.000  0.788
 
band    13 # energy   16.14215677 # occ.  0.00000000
 
ion      s     py     pz     px    dxy    dyz    dz2    dxz  x2-y2    tot
    1  0.196  0.012  0.000  0.035  0.001  0.000  0.187  0.000  0.000  0.430
    2  0.196  0.012  0.000  0.035  0.001  0.000  0.187  0.000  0.000  0.430
tot    0.391  0.023  0.000  0.069  0.001  0.000  0.374  0.000  0.000  0.859
 
band    14 # energy   24.19178006 # occ.  0.00000000
 
ion      s     py     pz     px    dxy    dyz    dz2    dxz  x2-y2    tot
    1  0.059  0.038  0.000  0.113  0.106  0.000  0.021  0.000  0.035  0.372
    2  0.059  0.038  0.000  0.113  0.106  0.000  0.021  0.000  0.035  0.372
tot    0.119  0.075  0.000  0.226  0.211  0.000  0.042  0.000  0.070  0.744
 
band    15 # energy   28.49555592 # occ.  0.00000000
 
ion      s     py     pz     px    dxy    dyz    dz2    dxz  x2-y2    tot
    1  0.000  0.196  0.000  0.065  0.026  0.000  0.000  0.000  0.078  0.366
    2  0.000  0.196  0.000  0.065  0.026  0.000  0.000  0.000  0.078  0.366
tot    0.000  0.392  0.000  0.131  0.052  0.000  0.000  0.000  0.156  0.731
 
band    16 # energy   30.51294056 # occ.  0.00000000
 
ion      s     py     pz     px    dxy    dyz    dz2    dxz  x2-y2    tot
    1  0.016  0.004  0.000  0.012  0.172  0.000  0.045  0.000  0.057  0.307
    2  0.016  0.004  0.000  0.012  0.172  0.000  0.045  0.000  0.057  0.307
tot    0.033  0.008  0.000  0.025  0.343  0.000  0.091  0.000  0.114  0.614
 

 k-point     4 :    0.30000000 0.00000000 0.00000000     weight = 0.00750000

band     1 # energy    3.74136582 # occ.  1.00000000
 
ion      s     py     pz     px    dxy    dyz    dz2    dxz  x2-y2    tot
    1  0.237  0.017  0.000  0.051  0.036  0.000  0.011  0.000  0.012  0.365
    2  0.237  0.017  0.000  0.051  0.036  0.000  0.011  0.000  0.012  0.365
tot    0.474  0.034  0.000  0.102  0.073  0.000  0.022  0.000  0.024  0.729
 
band     2 # energy    5.54529057 # occ.  1.00000000
 
ion      s     py     pz     px    dxy    dyz    dz2    dxz  x2-y2    tot
    1  0.016  0.002  0.000  0.005  0.177  0.000  0.199  0.000  0.059  0.458
    2  0.016  0.002  0.000  0.005  0.177  0.000  0.199  0.000  0.059  0.458
tot    0.031  0.004  0.000  0.011  0.355  0.000  0.398  0.000  0.118  0.916
 
band     3 # energy    6.03010518 # occ.  1.00000000
 
ion      s     py     pz     px    dxy    dyz    dz2    dxz  x2-y2    tot
    1  0.000  0.000  0.038  0.000  0.000  0.101  0.000  0.304  0.000  0.443
    2  0.000  0.000  0.038  0.000  0.000  0.101  0.000  0.304  0.000  0.443
tot    0.000  0.000  0.075  0.000  0.000  0.203  0.000  0.608  0.000  0.887
 
band     4 # energy    6.63082007 # occ.  1.00000000
 
ion      s     py     pz     px    dxy    dyz    dz2    dxz  x2-y2    tot
    1  0.004  0.011  0.000  0.034  0.196  0.000  0.139  0.000  0.065  0.450
    2  0.004  0.011  0.000  0.034  0.196  0.000  0.139  0.000  0.065  0.450
tot    0.007  0.023  0.000  0.069  0.393  0.000  0.278  0.000  0.131  0.900
 
band     5 # energy    7.26267350 # occ.  1.00000000
 
ion      s     py     pz     px    dxy    dyz    dz2    dxz  x2-y2    tot
    1  0.010  0.002  0.000  0.007  0.176  0.000  0.222  0.000  0.059  0.476
    2  0.010  0.002  0.000  0.007  0.176  0.000  0.222  0.000  0.059  0.476
tot    0.020  0.005  0.000  0.014  0.351  0.000  0.444  0.000  0.117  0.952
 
band     6 # energy    7.29736117 # occ.  1.00000000
 
ion      s     py     pz     px    dxy    dyz    dz2    dxz  x2-y2    tot
    1  0.000  0.000  0.000  0.000  0.000  0.362  0.000  0.121  0.000  0.483
    2  0.000  0.000  0.000  0.000  0.000  0.362  0.000  0.121  0.000  0.483
tot    0.000  0.000  0.000  0.000  0.000  0.724  0.000  0.241  0.000  0.965
 
band     7 # energy    7.51502129 # occ.  1.00000000
 
ion      s     py     pz     px    dxy    dyz    dz2    dxz  x2-y2    tot
    1  0.000  0.000  0.025  0.000  0.000  0.112  0.000  0.336  0.000  0.473
    2  0.000  0.000  0.025  0.000  0.000  0.112  0.000  0.336  0.000  0.473
tot    0.000  0.000  0.050  0.000  0.000  0.224  0.000  0.672  0.000  0.947
 
band     8 # energy    8.34662637 # occ.  1.00000000
 
ion      s     py     pz     px    dxy    dyz    dz2    dxz  x2-y2    tot
    1  0.000  0.001  0.000  0.000  0.122  0.000  0.000  0.000  0.365  0.488
    2  0.000  0.001  0.000  0.000  0.121  0.000  0.000  0.000  0.364  0.488
tot    0.000  0.002  0.000  0.001  0.243  0.000  0.000  0.000  0.729  0.975
 
band     9 # energy    8.42766289 # occ.  1.00000000
 
ion      s     py     pz     px    dxy    dyz    dz2    dxz  x2-y2    tot
    1  0.011  0.003  0.000  0.010  0.104  0.000  0.319  0.000  0.035  0.482
    2  0.011  0.003  0.000  0.010  0.104  0.000  0.319  0.000  0.035  0.482
tot    0.023  0.007  0.000  0.020  0.207  0.000  0.638  0.000  0.069  0.964
 
band    10 # energy    8.49874914 # occ.  1.00000000
 
ion      s     py     pz     px    dxy    dyz    dz2    dxz  x2-y2    tot
    1  0.000  0.002  0.000  0.001  0.122  0.000  0.000  0.000  0.366  0.491
    2  0.000  0.002  0.000  0.001  0.122  0.000  0.000  0.000  0.366  0.491
tot    0.000  0.004  0.000  0.001  0.244  0.000  0.000  0.000  0.732  0.982
 
band    11 # energy    9.04837360 # occ.  1.00000000
 
ion      s     py     pz     px    dxy    dyz    dz2    dxz  x2-y2    tot
    1  0.000  0.000  0.000  0.000  0.000  0.372  0.000  0.124  0.000  0.496
    2  0.000  0.000  0.000  0.000  0.000  0.372  0.000  0.124  0.000  0.496
tot    0.000  0.000  0.000  0.000  0.000  0.743  0.000  0.248  0.000  0.991
 
band    12 # energy   15.14550802 # occ.  0.00000000
 
ion      s     py     pz     px    dxy    dyz    dz2    dxz  x2-y2    tot
    1  0.000  0.000  0.236  0.000  0.000  0.040  0.000  0.119  0.000  0.395
    2  0.000  0.000  0.236  0.000  0.000  0.040  0.000  0.119  0.000  0.395
tot    0.000  0.000  0.472  0.000  0.000  0.079  0.000  0.238  0.000  0.790
 
band    13 # energy   16.53113290 # occ.  0.00000000
 
ion      s     py     pz     px    dxy    dyz    dz2    dxz  x2-y2    tot
    1  0.112  0.037  0.000  0.110  0.000  0.000  0.152  0.000  0.000  0.411
    2  0.112  0.037  0.000  0.110  0.000  0.000  0.152  0.000  0.000  0.411
tot    0.225  0.073  0.000  0.220  0.000  0.000  0.304  0.000  0.000  0.822
 
band    14 # energy   20.11393369 # occ.  0.00000000
 
ion      s     py     pz     px    dxy    dyz    dz2    dxz  x2-y2    tot
    1  0.155  0.024  0.000  0.071  0.098  0.000  0.011  0.000  0.033  0.391
    2  0.155  0.024  0.000  0.071  0.098  0.000  0.011  0.000  0.033  0.391
tot    0.310  0.047  0.000  0.142  0.195  0.000  0.022  0.000  0.065  0.782
 
band    15 # energy   26.30758546 # occ.  0.00000000
 
ion      s     py     pz     px    dxy    dyz    dz2    dxz  x2-y2    tot
    1  0.000  0.215  0.000  0.072  0.014  0.000  0.000  0.000  0.041  0.342
    2  0.000  0.215  0.000  0.072  0.014  0.000  0.000  0.000  0.041  0.342
tot    0.000  0.431  0.000  0.144  0.027  0.000  0.000  0.000  0.082  0.685
 
band    16 # energy   27.57898563 # occ.  0.00000000
 
ion      s     py     pz     px    dxy    dyz    dz2    dxz  x2-y2    tot
    1  0.000  0.000  0.091  0.000  0.000  0.059  0.000  0.176  0.000  0.325
    2  0.000  0.000  0.091  0.000  0.000  0.059  0.000  0.176  0.000  0.325
tot    0.000  0.000  0.182  0.000  0.000  0.117  0.000  0.351  0.000  0.650
 

 k-point     5 :    0.40000000 0.00000000 0.00000000     weight = 0.00750000

band     1 # energy    4.82158645 # occ.  1.00000000
 
ion      s     py     pz     px    dxy    dyz    dz2    dxz  x2-y2    tot
    1  0.125  0.011  0.000  0.034  0.156  0.000  0.030  0.000  0.052  0.409
    2  0.125  0.011  0.000  0.034  0.156  0.000  0.030  0.000  0.052  0.409
tot    0.249  0.023  0.000  0.069  0.312  0.000  0.061  0.000  0.104  0.817
 
band     2 # energy    5.34163983 # occ.  1.00000000
 
ion      s     py     pz     px    dxy    dyz    dz2    dxz  x2-y2    tot
    1  0.017  0.000  0.000  0.001  0.243  0.000  0.114  0.000  0.081  0.457
    2  0.017  0.000  0.000  0.001  0.243  0.000  0.114  0.000  0.081  0.457
tot    0.034  0.001  0.000  0.002  0.486  0.000  0.228  0.000  0.162  0.913
 
band     3 # energy    5.59770046 # occ.  1.00000000
 
ion      s     py     pz     px    dxy    dyz    dz2    dxz  x2-y2    tot
    1  0.000  0.000  0.021  0.000  0.000  0.106  0.000  0.318  0.000  0.445
    2  0.000  0.000  0.021  0.000  0.000  0.106  0.000  0.318  0.000  0.445
tot    0.000  0.000  0.043  0.000  0.000  0.212  0.000  0.635  0.000  0.890
 
band     4 # energy    6.98928545 # occ.  1.00000000
 
ion      s     py     pz     px    dxy    dyz    dz2    dxz  x2-y2    tot
    1  0.024  0.026  0.000  0.077  0.094  0.000  0.168  0.000  0.031  0.420
    2  0.024  0.026  0.000  0.077  0.094  0.000  0.168  0.000  0.031  0.420
tot    0.049  0.051  0.000  0.153  0.189  0.000  0.336  0.000  0.063  0.841
 
band     5 # energy    7.12744572 # occ.  1.00000000
 
ion      s     py     pz     px    dxy    dyz    dz2    dxz  x2-y2    tot
    1  0.000  0.000  0.000  0.000  0.000  0.361  0.000  0.120  0.000  0.481
    2  0.000  0.000  0.000  0.000  0.000  0.361  0.000  0.120  0.000  0.481
tot    0.000  0.000  0.000  0.000  0.000  0.722  0.000  0.241  0.000  0.963
 
band     6 # energy    7.35200315 # occ.  1.00000000
 
ion      s     py     pz     px    dxy    dyz    dz2    dxz  x2-y2    tot
    1  0.000  0.000  0.026  0.000  0.000  0.111  0.000  0.334  0.000  0.472
    2  0.000  0.000  0.026  0.000  0.000  0.111  0.000  0.334  0.000  0.472
tot    0.000  0.000  0.053  0.000  0.000  0.223  0.000  0.668  0.000  0.944
 
band     7 # energy    7.49777678 # occ.  1.00000000
 
ion      s     py     pz     px    dxy    dyz    dz2    dxz  x2-y2    tot
    1  0.003  0.004  0.000  0.013  0.076  0.000  0.357  0.000  0.025  0.478
    2  0.003  0.004  0.000  0.013  0.076  0.000  0.357  0.000  0.025  0.478
tot    0.006  0.009  0.000  0.027  0.151  0.000  0.714  0.000  0.050  0.956
 
band     8 # energy    8.82006567 # occ.  1.00000000
 
ion      s     py     pz     px    dxy    dyz    dz2    dxz  x2-y2    tot
    1  0.000  0.000  0.000  0.000  0.123  0.000  0.000  0.000  0.370  0.493
    2  0.000  0.000  0.000  0.000  0.123  0.000  0.000  0.000  0.370  0.493
tot    0.000  0.000  0.000  0.000  0.246  0.000  0.000  0.000  0.739  0.986
 
band     9 # energy    8.94632583 # occ.  1.00000000
 
ion      s     py     pz     px    dxy    dyz    dz2    dxz  x2-y2    tot
    1  0.000  0.001  0.000  0.000  0.123  0.000  0.000  0.000  0.369  0.494
    2  0.000  0.001  0.000  0.000  0.123  0.000  0.000  0.000  0.369  0.494
tot    0.000  0.002  0.000  0.001  0.246  0.000  0.000  0.000  0.739  0.988
 
band    10 # energy    9.07923835 # occ.  1.00000000
 
ion      s     py     pz     px    dxy    dyz    dz2    dxz  x2-y2    tot
    1  0.000  0.000  0.000  0.000  0.000  0.372  0.000  0.124  0.000  0.496
    2  0.000  0.000  0.000  0.000  0.000  0.372  0.000  0.124  0.000  0.496
tot    0.000  0.000  0.000  0.000  0.000  0.744  0.000  0.248  0.000  0.992
 
band    11 # energy    9.55855265 # occ.  0.99999999
 
ion      s     py     pz     px    dxy    dyz    dz2    dxz  x2-y2    tot
    1  0.036  0.014  0.000  0.042  0.099  0.000  0.237  0.000  0.033  0.461
    2  0.036  0.014  0.000  0.042  0.099  0.000  0.237  0.000  0.033  0.461
tot    0.072  0.028  0.000  0.084  0.198  0.000  0.474  0.000  0.066  0.922
 
band    12 # energy   15.13802354 # occ.  0.00000000
 
ion      s     py     pz     px    dxy    dyz    dz2    dxz  x2-y2    tot
    1  0.032  0.054  0.000  0.162  0.046  0.000  0.098  0.000  0.015  0.407
    2  0.032  0.054  0.000  0.162  0.046  0.000  0.098  0.000  0.015  0.407
tot    0.064  0.108  0.000  0.324  0.092  0.000  0.196  0.000  0.031  0.814
 
band    13 # energy   17.52339673 # occ.  0.00000000
 
ion      s     py     pz     px    dxy    dyz    dz2    dxz  x2-y2    tot
    1  0.000  0.000  0.243  0.000  0.000  0.038  0.000  0.113  0.000  0.393
    2  0.000  0.000  0.243  0.000  0.000  0.038  0.000  0.113  0.000  0.393
tot    0.000  0.000  0.485  0.000  0.000  0.075  0.000  0.225  0.000  0.786
 
band    14 # energy   18.91463710 # occ.  0.00000000
 
ion      s     py     pz     px    dxy    dyz    dz2    dxz  x2-y2    tot
    1  0.223  0.017  0.000  0.050  0.059  0.000  0.021  0.000  0.020  0.390
    2  0.223  0.017  0.000  0.050  0.059  0.000  0.021  0.000  0.020  0.390
tot    0.445  0.034  0.000  0.101  0.118  0.000  0.042  0.000  0.039  0.779
 
band    15 # energy   24.23205008 # occ.  0.00000000
 
ion      s     py     pz     px    dxy    dyz    dz2    dxz  x2-y2    tot
    1  0.000  0.000  0.112  0.000  0.000  0.062  0.000  0.185  0.000  0.358
    2  0.000  0.000  0.112  0.000  0.000  0.062  0.000  0.185  0.000  0.358
tot    0.000  0.000  0.223  0.000  0.000  0.123  0.000  0.370  0.000  0.716
 
band    16 # energy   24.83642923 # occ.  0.00000000
 
ion      s     py     pz     px    dxy    dyz    dz2    dxz  x2-y2    tot
    1  0.000  0.230  0.000  0.077  0.004  0.000  0.000  0.000  0.012  0.323
    2  0.000  0.230  0.000  0.077  0.004  0.000  0.000  0.000  0.012  0.323
tot    0.000  0.461  0.000  0.154  0.008  0.000  0.000  0.000  0.024  0.646
 

 k-point     6 :    0.50000000 0.00000000 0.00000000     weight = 0.00375000

band     1 # energy    5.16900727 # occ.  1.00000000
 
ion      s     py     pz     px    dxy    dyz    dz2    dxz  x2-y2    tot
    1  0.009  0.000  0.000  0.001  0.261  0.000  0.094  0.000  0.087  0.452
    2  0.009  0.000  0.000  0.001  0.261  0.000  0.094  0.000  0.087  0.452
tot    0.018  0.001  0.000  0.002  0.521  0.000  0.189  0.000  0.174  0.904
 
band     2 # energy    5.17351625 # occ.  1.00000000
 
ion      s     py     pz     px    dxy    dyz    dz2    dxz  x2-y2    tot
    1  0.082  0.006  0.000  0.017  0.223  0.000  0.035  0.000  0.074  0.437
    2  0.082  0.006  0.000  0.017  0.223  0.000  0.035  0.000  0.074  0.437
tot    0.165  0.011  0.000  0.034  0.447  0.000  0.070  0.000  0.149  0.875