PROCAR lm decomposed
# of k-points:   95         # of bands:   28         # of ions:    2

 k-point     1 :    0.00000000 0.00000000 0.00000000     weight = 0.00086806

band     1 # energy    0.68070511 # occ.  1.00000000
 
ion      s     py     pz     px    dxy    dyz    dz2    dxz  x2-y2    tot
    1  0.329  0.000  0.000  0.000  0.000  0.000  0.000  0.000  0.000  0.329
    2  0.329  0.000  0.000  0.000  0.000  0.000  0.000  0.000  0.000  0.329
tot    0.659  0.000  0.000  0.000  0.000  0.000  0.000  0.000  0.000  0.659
 
band     2 # energy    4.32903698 # occ.  1.00000000
 
ion      s     py     pz     px    dxy    dyz    dz2    dxz  x2-y2    tot
    1  0.072  0.000  0.000  0.000  0.000  0.000  0.361  0.000  0.000  0.432
    2  0.072  0.000  0.000  0.000  0.000  0.000  0.361  0.000  0.000  0.432
tot    0.144  0.000  0.000  0.000  0.000  0.000  0.721  0.000  0.000  0.865
 
band     3 # energy    6.57404510 # occ.  1.00000000
 
ion      s     py     pz     px    dxy    dyz    dz2    dxz  x2-y2    tot
    1  0.000  0.000  0.000  0.000  0.000  0.000  0.483  0.000  0.000  0.483
    2  0.000  0.000  0.000  0.000  0.000  0.000  0.483  0.000  0.000  0.483
tot    0.000  0.000  0.000  0.000  0.000  0.000  0.966  0.000  0.000  0.966
 
band     4 # energy    6.58440881 # occ.  1.00000000
 
ion      s     py     pz     px    dxy    dyz    dz2    dxz  x2-y2    tot
    1  0.000  0.000  0.000  0.000  0.000  0.000  0.000  0.000  0.479  0.480
    2  0.000  0.000  0.000  0.000  0.000  0.000  0.000  0.000  0.479  0.480
tot    0.000  0.001  0.000  0.000  0.000  0.000  0.000  0.000  0.959  0.960
 
band     5 # energy    6.58440925 # occ.  1.00000000
 
ion      s     py     pz     px    dxy    dyz    dz2    dxz  x2-y2    tot
    1  0.000  0.000  0.000  0.000  0.479  0.000  0.000  0.000  0.000  0.480
    2  0.000  0.000  0.000  0.000  0.479  0.000  0.000  0.000  0.000  0.480
tot    0.000  0.000  0.000  0.001  0.959  0.000  0.000  0.000  0.000  0.960
 
band     6 # energy    6.85482830 # occ.  1.00000000
 
ion      s     py     pz     px    dxy    dyz    dz2    dxz  x2-y2    tot
    1  0.000  0.001  0.000  0.000  0.000  0.000  0.000  0.000  0.484  0.485
    2  0.000  0.001  0.000  0.000  0.000  0.000  0.000  0.000  0.484  0.485
tot    0.000  0.001  0.000  0.000  0.000  0.000  0.000  0.000  0.968  0.970
 
band     7 # energy    6.85482874 # occ.  1.00000000
 
ion      s     py     pz     px    dxy    dyz    dz2    dxz  x2-y2    tot
    1  0.000  0.000  0.000  0.001  0.484  0.000  0.000  0.000  0.000  0.485
    2  0.000  0.000  0.000  0.001  0.484  0.000  0.000  0.000  0.000  0.485
tot    0.000  0.000  0.000  0.001  0.968  0.000  0.000  0.000  0.000  0.970
 
band     8 # energy    7.14638924 # occ.  1.00000000
 
ion      s     py     pz     px    dxy    dyz    dz2    dxz  x2-y2    tot
    1  0.000  0.000  0.000  0.000  0.000  0.000  0.000  0.488  0.000  0.488
    2  0.000  0.000  0.000  0.000  0.000  0.000  0.000  0.488  0.000  0.488
tot    0.000  0.000  0.000  0.000  0.000  0.000  0.000  0.975  0.000  0.975
 
band     9 # energy    7.14638927 # occ.  1.00000000
 
ion      s     py     pz     px    dxy    dyz    dz2    dxz  x2-y2    tot
    1  0.000  0.000  0.000  0.000  0.000  0.488  0.000  0.000  0.000  0.488
    2  0.000  0.000  0.000  0.000  0.000  0.488  0.000  0.000  0.000  0.488
tot    0.000  0.000  0.000  0.000  0.000  0.975  0.000  0.000  0.000  0.975
 
band    10 # energy    8.11620597 # occ.  1.00000000
 
ion      s     py     pz     px    dxy    dyz    dz2    dxz  x2-y2    tot
    1  0.000  0.000  0.000  0.000  0.000  0.000  0.000  0.492  0.000  0.492
    2  0.000  0.000  0.000  0.000  0.000  0.000  0.000  0.492  0.000  0.492
tot    0.000  0.000  0.000  0.000  0.000  0.000  0.000  0.984  0.000  0.984
 
band    11 # energy    8.11620605 # occ.  1.00000000
 
ion      s     py     pz     px    dxy    dyz    dz2    dxz  x2-y2    tot
    1  0.000  0.000  0.000  0.000  0.000  0.492  0.000  0.000  0.000  0.492
    2  0.000  0.000  0.000  0.000  0.000  0.492  0.000  0.000  0.000  0.492
tot    0.000  0.000  0.000  0.000  0.000  0.984  0.000  0.000  0.000  0.984
 
band    12 # energy    9.10569038 # occ.  0.16986544
 
ion      s     py     pz     px    dxy    dyz    dz2    dxz  x2-y2    tot
    1  0.000  0.000  0.310  0.000  0.000  0.000  0.000  0.000  0.000  0.310
    2  0.000  0.000  0.310  0.000  0.000  0.000  0.000  0.000  0.000  0.310
tot    0.000  0.000  0.620  0.000  0.000  0.000  0.000  0.000  0.000  0.620
 
band    13 # energy   14.74291951 # occ.  0.00000000
 
ion      s     py     pz     px    dxy    dyz    dz2    dxz  x2-y2    tot
    1  0.219  0.000  0.000  0.000  0.000  0.000  0.212  0.000  0.000  0.431
    2  0.219  0.000  0.000  0.000  0.000  0.000  0.212  0.000  0.000  0.431
tot    0.438  0.000  0.000  0.000  0.000  0.000  0.424  0.000  0.000  0.863
 
band    14 # energy   30.31451441 # occ.  0.00000000
 
ion      s     py     pz     px    dxy    dyz    dz2    dxz  x2-y2    tot
    1  0.007  0.000  0.000  0.000  0.000  0.000  0.032  0.000  0.000  0.039
    2  0.007  0.000  0.000  0.000  0.000  0.000  0.032  0.000  0.000  0.039
tot    0.013  0.000  0.000  0.000  0.000  0.000  0.065  0.000  0.000  0.078
 
band    15 # energy   32.04456876 # occ.  0.00000000
 
ion      s     py     pz     px    dxy    dyz    dz2    dxz  x2-y2    tot
    1  0.000  0.274  0.000  0.000  0.000  0.000  0.000  0.000  0.098  0.372
    2  0.000  0.274  0.000  0.000  0.000  0.000  0.000  0.000  0.098  0.372
tot    0.000  0.547  0.000  0.000  0.000  0.000  0.000  0.000  0.196  0.743
 
band    16 # energy   32.04457132 # occ.  0.00000000
 
ion      s     py     pz     px    dxy    dyz    dz2    dxz  x2-y2    tot
    1  0.000  0.000  0.000  0.274  0.098  0.000  0.000  0.000  0.000  0.372
    2  0.000  0.000  0.000  0.274  0.098  0.000  0.000  0.000  0.000  0.372
tot    0.000  0.000  0.000  0.547  0.196  0.000  0.000  0.000  0.000  0.743
 
band    17 # energy   33.17058423 # occ.  0.00000000
 
ion      s     py     pz     px    dxy    dyz    dz2    dxz  x2-y2    tot
    1  0.025  0.000  0.000  0.000  0.000  0.000  0.073  0.000  0.000  0.098
    2  0.025  0.000  0.000  0.000  0.000  0.000  0.073  0.000  0.000  0.098
tot    0.050  0.000  0.000  0.000  0.000  0.000  0.146  0.000  0.000  0.196
 
band    18 # energy   33.48879358 # occ.  0.00000000
 
ion      s     py     pz     px    dxy    dyz    dz2    dxz  x2-y2    tot
    1  0.000  0.095  0.000  0.000  0.000  0.000  0.000  0.000  0.325  0.420
    2  0.000  0.095  0.000  0.000  0.000  0.000  0.000  0.000  0.325  0.420
tot    0.000  0.189  0.000  0.000  0.000  0.000  0.000  0.000  0.650  0.840
 
band    19 # energy   33.48879709 # occ.  0.00000000
 
ion      s     py     pz     px    dxy    dyz    dz2    dxz  x2-y2    tot
    1  0.000  0.000  0.000  0.095  0.325  0.000  0.000  0.000  0.000  0.420
    2  0.000  0.000  0.000  0.095  0.325  0.000  0.000  0.000  0.000  0.420
tot    0.000  0.000  0.000  0.189  0.650  0.000  0.000  0.000  0.000  0.840
 
band    20 # energy   33.68304099 # occ.  0.00000000
 
ion      s     py     pz     px    dxy    dyz    dz2    dxz  x2-y2    tot
    1  0.000  0.000  0.035  0.000  0.000  0.000  0.000  0.000  0.000  0.035
    2  0.000  0.000  0.035  0.000  0.000  0.000  0.000  0.000  0.000  0.035
tot    0.000  0.000  0.070  0.000  0.000  0.000  0.000  0.000  0.000  0.070
 
band    21 # energy   38.29775585 # occ.  0.00000000
 
ion      s     py     pz     px    dxy    dyz    dz2    dxz  x2-y2    tot
    1  0.000  0.000  0.000  0.000  0.000  0.124  0.000  0.000  0.000  0.124
    2  0.000  0.000  0.000  0.000  0.000  0.124  0.000  0.000  0.000  0.124
tot    0.000  0.000  0.000  0.000  0.000  0.248  0.000  0.000  0.000  0.248
 
band    22 # energy   38.29775662 # occ.  0.00000000
 
ion      s     py     pz     px    dxy    dyz    dz2    dxz  x2-y2    tot
    1  0.000  0.000  0.000  0.000  0.000  0.000  0.000  0.124  0.000  0.124
    2  0.000  0.000  0.000  0.000  0.000  0.000  0.000  0.124  0.000  0.124
tot    0.000  0.000  0.000  0.000  0.000  0.000  0.000  0.248  0.000  0.248
 
band    23 # energy   38.74511000 # occ.  0.00000000
 
ion      s     py     pz     px    dxy    dyz    dz2    dxz  x2-y2    tot
    1  0.003  0.000  0.000  0.000  0.000  0.000  0.543  0.000  0.000  0.546
    2  0.003  0.000  0.000  0.000  0.000  0.000  0.543  0.000  0.000  0.546
tot    0.006  0.000  0.000  0.000  0.000  0.000  1.087  0.000  0.000  1.092
 
band    24 # energy   39.60362198 # occ.  0.00000000
 
ion      s     py     pz     px    dxy    dyz    dz2    dxz  x2-y2    tot
    1  0.000  0.000  0.047  0.000  0.000  0.000  0.000  0.000  0.000  0.047
    2  0.000  0.000  0.047  0.000  0.000  0.000  0.000  0.000  0.000  0.047
tot    0.000  0.000  0.094  0.000  0.000  0.000  0.000  0.000  0.000  0.094
 
band    25 # energy   40.99227707 # occ.  0.00000000
 
ion      s     py     pz     px    dxy    dyz    dz2    dxz  x2-y2    tot
    1  0.000  0.000  0.000  0.000  0.000  0.469  0.000  0.000  0.000  0.469
    2  0.000  0.000  0.000  0.000  0.000  0.469  0.000  0.000  0.000  0.469
tot    0.000  0.000  0.000  0.000  0.000  0.937  0.000  0.000  0.000  0.937
 
band    26 # energy   40.99227735 # occ.  0.00000000
 
ion      s     py     pz     px    dxy    dyz    dz2    dxz  x2-y2    tot
    1  0.000  0.000  0.000  0.000  0.000  0.000  0.000  0.469  0.000  0.469
    2  0.000  0.000  0.000  0.000  0.000  0.000  0.000  0.469  0.000  0.469
tot    0.000  0.000  0.000  0.000  0.000  0.000  0.000  0.937  0.000  0.937
 
band    27 # energy   41.18177992 # occ.  0.00000000
 
ion      s     py     pz     px    dxy    dyz    dz2    dxz  x2-y2    tot
    1  0.000  0.000  0.349  0.000  0.000  0.000  0.000  0.000  0.000  0.349
    2  0.000  0.000  0.349  0.000  0.000  0.000  0.000  0.000  0.000  0.349
tot    0.000  0.000  0.698  0.000  0.000  0.000  0.000  0.000  0.000  0.698
 
band    28 # energy   42.85647448 # occ.  0.00000000
 
ion      s     py     pz     px    dxy    dyz    dz2    dxz  x2-y2    tot
    1  0.000  0.054  0.000  0.045  0.229  0.000  0.000  0.000  0.276  0.605
    2  0.000  0.054  0.000  0.045  0.229  0.000  0.000  0.000  0.276  0.605
tot    0.000  0.109  0.000  0.090  0.458  0.000  0.000  0.000  0.553  1.210
 

 k-point     2 :    0.08333333 0.00000000 0.00000000     weight = 0.00520833

band     1 # energy    0.90821603 # occ.  1.00000000
 
ion      s     py     pz     px    dxy    dyz    dz2    dxz  x2-y2    tot
    1  0.322  0.002  0.000  0.005  0.000  0.000  0.000  0.000  0.000  0.330
    2  0.322  0.002  0.000  0.005  0.000  0.000  0.000  0.000  0.000  0.330
tot    0.644  0.004  0.000  0.011  0.000  0.000  0.000  0.000  0.000  0.659
 
band     2 # energy    4.46017921 # occ.  1.00000000
 
ion      s     py     pz     px    dxy    dyz    dz2    dxz  x2-y2    tot
    1  0.065  0.001  0.000  0.003  0.002  0.000  0.362  0.000  0.001  0.434
    2  0.065  0.001  0.000  0.003  0.002  0.000  0.362  0.000  0.001  0.434
tot    0.130  0.002  0.000  0.006  0.004  0.000  0.724  0.000  0.001  0.868
 
band     3 # energy    6.38293257 # occ.  1.00000000
 
ion      s     py     pz     px    dxy    dyz    dz2    dxz  x2-y2    tot
    1  0.000  0.000  0.000  0.001  0.234  0.000  0.164  0.000  0.078  0.477
    2  0.000  0.000  0.000  0.001  0.234  0.000  0.164  0.000  0.078  0.477
tot    0.000  0.001  0.000  0.002  0.468  0.000  0.328  0.000  0.156  0.955
 
band     4 # energy    6.68299387 # occ.  1.00000000
 
ion      s     py     pz     px    dxy    dyz    dz2    dxz  x2-y2    tot
    1  0.000  0.001  0.000  0.000  0.120  0.000  0.000  0.000  0.360  0.480
    2  0.000  0.001  0.000  0.000  0.120  0.000  0.000  0.000  0.360  0.480
tot    0.000  0.001  0.000  0.000  0.240  0.000  0.000  0.000  0.719  0.960
 
band     5 # energy    6.74396089 # occ.  1.00000000
 
ion      s     py     pz     px    dxy    dyz    dz2    dxz  x2-y2    tot
    1  0.000  0.000  0.000  0.000  0.153  0.000  0.278  0.000  0.051  0.483
    2  0.000  0.000  0.000  0.000  0.153  0.000  0.278  0.000  0.051  0.483
tot    0.000  0.000  0.000  0.001  0.306  0.000  0.557  0.000  0.102  0.966
 
band     6 # energy    6.81673526 # occ.  1.00000000
 
ion      s     py     pz     px    dxy    dyz    dz2    dxz  x2-y2    tot
    1  0.001  0.000  0.000  0.000  0.330  0.000  0.042  0.000  0.110  0.483
    2  0.001  0.000  0.000  0.000  0.330  0.000  0.042  0.000  0.110  0.483
tot    0.002  0.000  0.000  0.001  0.660  0.000  0.084  0.000  0.220  0.967
 
band     7 # energy    6.94187479 # occ.  1.00000000
 
ion      s     py     pz     px    dxy    dyz    dz2    dxz  x2-y2    tot
    1  0.000  0.001  0.000  0.000  0.121  0.000  0.000  0.000  0.363  0.485
    2  0.000  0.001  0.000  0.000  0.121  0.000  0.000  0.000  0.363  0.485
tot    0.000  0.001  0.000  0.000  0.242  0.000  0.000  0.000  0.726  0.970
 
band     8 # energy    7.02481035 # occ.  1.00000000
 
ion      s     py     pz     px    dxy    dyz    dz2    dxz  x2-y2    tot
    1  0.000  0.000  0.007  0.000  0.000  0.118  0.000  0.355  0.000  0.481
    2  0.000  0.000  0.007  0.000  0.000  0.118  0.000  0.355  0.000  0.481
tot    0.000  0.000  0.014  0.000  0.000  0.237  0.000  0.711  0.000  0.962
 
band     9 # energy    7.08547635 # occ.  1.00000000
 
ion      s     py     pz     px    dxy    dyz    dz2    dxz  x2-y2    tot
    1  0.000  0.000  0.000  0.000  0.000  0.365  0.000  0.122  0.000  0.487
    2  0.000  0.000  0.000  0.000  0.000  0.365  0.000  0.122  0.000  0.487
tot    0.000  0.000  0.000  0.000  0.000  0.730  0.000  0.243  0.000  0.974
 
band    10 # energy    7.50736812 # occ.  1.00000000
 
ion      s     py     pz     px    dxy    dyz    dz2    dxz  x2-y2    tot
    1  0.000  0.000  0.067  0.000  0.000  0.095  0.000  0.285  0.000  0.447
    2  0.000  0.000  0.067  0.000  0.000  0.095  0.000  0.285  0.000  0.447
tot    0.000  0.000  0.133  0.000  0.000  0.190  0.000  0.571  0.000  0.894
 
band    11 # energy    8.14186782 # occ.  1.00000000
 
ion      s     py     pz     px    dxy    dyz    dz2    dxz  x2-y2    tot
    1  0.000  0.000  0.000  0.000  0.000  0.369  0.000  0.123  0.000  0.493
    2  0.000  0.000  0.000  0.000  0.000  0.369  0.000  0.123  0.000  0.493
tot    0.000  0.000  0.000  0.000  0.000  0.739  0.000  0.246  0.000  0.985
 
band    12 # energy   10.00037360 # occ.  0.00000000
 
ion      s     py     pz     px    dxy    dyz    dz2    dxz  x2-y2    tot
    1  0.000  0.000  0.234  0.000  0.000  0.032  0.000  0.096  0.000  0.362
    2  0.000  0.000  0.234  0.000  0.000  0.032  0.000  0.096  0.000  0.362
tot    0.000  0.000  0.468  0.000  0.000  0.064  0.000  0.192  0.000  0.724
 
band    13 # energy   14.79159839 # occ.  0.00000000
 
ion      s     py     pz     px    dxy    dyz    dz2    dxz  x2-y2    tot
    1  0.216  0.002  0.000  0.005  0.000  0.000  0.206  0.000  0.000  0.429
    2  0.216  0.002  0.000  0.005  0.000  0.000  0.206  0.000  0.000  0.429
tot    0.432  0.003  0.000  0.010  0.000  0.000  0.412  0.000  0.000  0.857
 
band    14 # energy   28.14614149 # occ.  0.00000000
 
ion      s     py     pz     px    dxy    dyz    dz2    dxz  x2-y2    tot
    1  0.016  0.029  0.000  0.088  0.100  0.000  0.021  0.000  0.033  0.287
    2  0.016  0.029  0.000  0.088  0.100  0.000  0.021  0.000  0.033  0.287
tot    0.031  0.059  0.000  0.176  0.199  0.000  0.042  0.000  0.066  0.574
 
band    15 # energy   30.09949657 # occ.  0.00000000
 
ion      s     py     pz     px    dxy    dyz    dz2    dxz  x2-y2    tot
    1  0.000  0.177  0.000  0.059  0.035  0.000  0.000  0.000  0.104  0.375
    2  0.000  0.177  0.000  0.059  0.035  0.000  0.000  0.000  0.104  0.375
tot    0.000  0.353  0.000  0.118  0.070  0.000  0.000  0.000  0.209  0.749
 
band    16 # energy   30.44408021 # occ.  0.00000000
 
ion      s     py     pz     px    dxy    dyz    dz2    dxz  x2-y2    tot
    1  0.021  0.019  0.000  0.057  0.055  0.000  0.037  0.000  0.018  0.208
    2  0.021  0.019  0.000  0.057  0.055  0.000  0.037  0.000  0.018  0.208
tot    0.041  0.038  0.000  0.114  0.111  0.000  0.075  0.000  0.037  0.416
 
band    17 # energy   33.69324516 # occ.  0.00000000
 
ion      s     py     pz     px    dxy    dyz    dz2    dxz  x2-y2    tot
    1  0.000  0.000  0.012  0.000  0.000  0.012  0.000  0.036  0.000  0.060
    2  0.000  0.000  0.012  0.000  0.000  0.012  0.000  0.036  0.000  0.060
tot    0.000  0.000  0.024  0.000  0.000  0.024  0.000  0.072  0.000  0.120
 
band    18 # energy   33.90528200 # occ.  0.00000000
 
ion      s     py     pz     px    dxy    dyz    dz2    dxz  x2-y2    tot
    1  0.004  0.014  0.000  0.043  0.033  0.000  0.036  0.000  0.011  0.142
    2  0.004  0.014  0.000  0.043  0.033  0.000  0.036  0.000  0.011  0.142
tot    0.009  0.028  0.000  0.085  0.067  0.000  0.072  0.000  0.022  0.284
 
band    19 # energy   35.26410457 # occ.  0.00000000
 
ion      s     py     pz     px    dxy    dyz    dz2    dxz  x2-y2    tot
    1  0.000  0.000  0.035  0.000  0.000  0.027  0.000  0.080  0.000  0.141
    2  0.000  0.000  0.035  0.000  0.000  0.027  0.000  0.080  0.000  0.141
tot    0.000  0.000  0.070  0.000  0.000  0.053  0.000  0.159  0.000  0.282
 
band    20 # energy   35.68076060 # occ.  0.00000000
 
ion      s     py     pz     px    dxy    dyz    dz2    dxz  x2-y2    tot
    1  0.000  0.092  0.000  0.031  0.073  0.000  0.000  0.000  0.219  0.415
    2  0.000  0.092  0.000  0.031  0.073  0.000  0.000  0.000  0.219  0.415
tot    0.000  0.185  0.000  0.062  0.146  0.000  0.000  0.000  0.438  0.830
 
band    21 # energy   36.42374065 # occ.  0.00000000
 
ion      s     py     pz     px    dxy    dyz    dz2    dxz  x2-y2    tot
    1  0.006  0.043  0.000  0.130  0.090  0.000  0.007  0.000  0.030  0.307
    2  0.006  0.043  0.000  0.130  0.090  0.000  0.007  0.000  0.030  0.307
tot    0.011  0.087  0.000  0.261  0.181  0.000  0.014  0.000  0.060  0.614
 
band    22 # energy   37.70103037 # occ.  0.00000000
 
ion      s     py     pz     px    dxy    dyz    dz2    dxz  x2-y2    tot
    1  0.000  0.000  0.000  0.000  0.000  0.177  0.000  0.059  0.000  0.236
    2  0.000  0.000  0.000  0.000  0.000  0.177  0.000  0.059  0.000  0.236
tot    0.000  0.000  0.000  0.000  0.000  0.355  0.000  0.118  0.000  0.473
 
band    23 # energy   38.31344893 # occ.  0.00000000
 
ion      s     py     pz     px    dxy    dyz    dz2    dxz  x2-y2    tot
    1  0.001  0.007  0.000  0.022  0.060  0.000  0.409  0.000  0.020  0.519
    2  0.001  0.007  0.000  0.022  0.060  0.000  0.409  0.000  0.020  0.519
tot    0.002  0.015  0.000  0.044  0.120  0.000  0.817  0.000  0.040  1.038
 
band    24 # energy   38.37637660 # occ.  0.00000000
 
ion      s     py     pz     px    dxy    dyz    dz2    dxz  x2-y2    tot
    1  0.000  0.000  0.213  0.000  0.000  0.032  0.000  0.097  0.000  0.342
    2  0.000  0.000  0.213  0.000  0.000  0.032  0.000  0.097  0.000  0.342
tot    0.000  0.000  0.425  0.000  0.000  0.065  0.000  0.194  0.000  0.684
 
band    25 # energy   40.34209815 # occ.  0.00000000
 
ion      s     py     pz     px    dxy    dyz    dz2    dxz  x2-y2    tot
    1  0.000  0.180  0.000  0.060  0.064  0.000  0.000  0.000  0.193  0.497
    2  0.000  0.180  0.000  0.060  0.064  0.000  0.000  0.000  0.193  0.497
tot    0.000  0.359  0.000  0.120  0.129  0.000  0.000  0.000  0.386  0.993
 
band    26 # energy   40.56746762 # occ.  0.00000000
 
ion      s     py     pz     px    dxy    dyz    dz2    dxz  x2-y2    tot
    1  0.066  0.026  0.000  0.078  0.196  0.000  0.118  0.000  0.065  0.549
    2  0.066  0.026  0.000  0.078  0.196  0.000  0.118  0.000  0.065  0.549
tot    0.132  0.052  0.000  0.155  0.392  0.000  0.235  0.000  0.131  1.097
 
band    27 # energy   41.99571778 # occ.  0.00000000
 
ion      s     py     pz     px    dxy    dyz    dz2    dxz  x2-y2    tot
    1  0.000  0.000  0.000  0.000  0.000  0.266  0.000  0.089  0.000  0.354
    2  0.000  0.000  0.000  0.000  0.000  0.266  0.000  0.089  0.000  0.354
tot    0.000  0.000  0.000  0.000  0.000  0.532  0.000  0.177  0.000  0.709
 
band    28 # energy   42.56656500 # occ.  0.00000000
 
ion      s     py     pz     px    dxy    dyz    dz2    dxz  x2-y2    tot
    1  0.000  0.000  0.063  0.000  0.000  0.017  0.000  0.050  0.000  0.130
    2  0.000  0.000  0.063  0.000  0.000  0.017  0.000  0.050  0.000  0.130
tot    0.000  0.000  0.126  0.000  0.000  0.033  0.000  0.100  0.000  0.260
 

 k-point     3 :    0.16666667 0.00000000 0.00000000     weight = 0.00520833

band     1 # energy    1.56837063 # occ.  1.00000000
 
ion      s     py     pz     px    dxy    dyz    dz2    dxz  x2-y2    tot
    1  0.301  0.007  0.000  0.020  0.002  0.000  0.001  0.000  0.001  0.331
    2  0.301  0.007  0.000  0.020  0.002  0.000  0.001  0.000  0.001  0.331
tot    0.601  0.013  0.000  0.040  0.004  0.000  0.002  0.000  0.001  0.661
 
band     2 # energy    4.78443489 # occ.  1.00000000
 
ion      s     py     pz     px    dxy    dyz    dz2    dxz  x2-y2    tot
    1  0.046  0.003  0.000  0.010  0.018  0.000  0.355  0.000  0.006  0.439
    2  0.046  0.003  0.000  0.010  0.018  0.000  0.355  0.000  0.006  0.439
tot    0.093  0.007  0.000  0.020  0.037  0.000  0.710  0.000  0.012  0.878
 
band     3 # energy    6.14919934 # occ.  1.00000000
 
ion      s     py     pz     px    dxy    dyz    dz2    dxz  x2-y2    tot
    1  0.000  0.001  0.000  0.004  0.262  0.000  0.116  0.000  0.087  0.470
    2  0.000  0.001  0.000  0.004  0.262  0.000  0.116  0.000  0.087  0.470
tot    0.000  0.002  0.000  0.007  0.524  0.000  0.232  0.000  0.175  0.940
 
band     4 # energy    6.44152235 # occ.  1.00000000
 
ion      s     py     pz     px    dxy    dyz    dz2    dxz  x2-y2    tot
    1  0.000  0.000  0.047  0.000  0.000  0.100  0.000  0.300  0.000  0.446
    2  0.000  0.000  0.047  0.000  0.000  0.100  0.000  0.300  0.000  0.446
tot    0.000  0.000  0.093  0.000  0.000  0.200  0.000  0.599  0.000  0.892
 
band     5 # energy    6.67022865 # occ.  1.00000000
 
ion      s     py     pz     px    dxy    dyz    dz2    dxz  x2-y2    tot
    1  0.004  0.000  0.000  0.001  0.314  0.000  0.056  0.000  0.105  0.480
    2  0.004  0.000  0.000  0.001  0.314  0.000  0.056  0.000  0.105  0.480
tot    0.007  0.001  0.000  0.002  0.628  0.000  0.112  0.000  0.209  0.959
 
band     6 # energy    6.93502200 # occ.  1.00000000
 
ion      s     py     pz     px    dxy    dyz    dz2    dxz  x2-y2    tot
    1  0.000  0.000  0.000  0.000  0.000  0.363  0.000  0.121  0.000  0.485
    2  0.000  0.000  0.000  0.000  0.000  0.363  0.000  0.121  0.000  0.485
tot    0.000  0.000  0.000  0.000  0.000  0.727  0.000  0.242  0.000  0.969
 
band     7 # energy    6.96133942 # occ.  1.00000000
 
ion      s     py     pz     px    dxy    dyz    dz2    dxz  x2-y2    tot
    1  0.000  0.001  0.000  0.000  0.120  0.000  0.000  0.000  0.360  0.482
    2  0.000  0.001  0.000  0.000  0.120  0.000  0.000  0.000  0.360  0.482
tot    0.000  0.002  0.000  0.001  0.240  0.000  0.000  0.000  0.720  0.963
 
band     8 # energy    7.00954085 # occ.  1.00000000
 
ion      s     py     pz     px    dxy    dyz    dz2    dxz  x2-y2    tot
    1  0.001  0.000  0.000  0.001  0.114  0.000  0.330  0.000  0.038  0.484
    2  0.001  0.000  0.000  0.001  0.114  0.000  0.330  0.000  0.038  0.484
tot    0.003  0.001  0.000  0.002  0.227  0.000  0.660  0.000  0.076  0.968
 
band     9 # energy    7.14198453 # occ.  1.00000000
 
ion      s     py     pz     px    dxy    dyz    dz2    dxz  x2-y2    tot
    1  0.000  0.000  0.030  0.000  0.000  0.110  0.000  0.329  0.000  0.469
    2  0.000  0.000  0.030  0.000  0.000  0.110  0.000  0.329  0.000  0.469
tot    0.000  0.000  0.061  0.000  0.000  0.219  0.000  0.657  0.000  0.937
 
band    10 # energy    7.18612687 # occ.  1.00000000
 
ion      s     py     pz     px    dxy    dyz    dz2    dxz  x2-y2    tot
    1  0.000  0.001  0.000  0.000  0.121  0.000  0.000  0.000  0.363  0.486
    2  0.000  0.001  0.000  0.000  0.121  0.000  0.000  0.000  0.363  0.486
tot    0.000  0.002  0.000  0.001  0.242  0.000  0.000  0.000  0.727  0.972
 
band    11 # energy    8.19696047 # occ.  1.00000000
 
ion      s     py     pz     px    dxy    dyz    dz2    dxz  x2-y2    tot
    1  0.000  0.000  0.000  0.000  0.000  0.370  0.000  0.123  0.000  0.494
    2  0.000  0.000  0.000  0.000  0.000  0.370  0.000  0.123  0.000  0.494
tot    0.000  0.000  0.000  0.000  0.000  0.741  0.000  0.247  0.000  0.988
 
band    12 # energy   11.45042731 # occ.  0.00000000
 
ion      s     py     pz     px    dxy    dyz    dz2    dxz  x2-y2    tot
    1  0.000  0.000  0.223  0.000  0.000  0.038  0.000  0.114  0.000  0.375
    2  0.000  0.000  0.223  0.000  0.000  0.038  0.000  0.114  0.000  0.375
tot    0.000  0.000  0.447  0.000  0.000  0.076  0.000  0.227  0.000  0.750
 
band    13 # energy   14.95941637 # occ.  0.00000000
 
ion      s     py     pz     px    dxy    dyz    dz2    dxz  x2-y2    tot
    1  0.203  0.007  0.000  0.021  0.001  0.000  0.188  0.000  0.000  0.420
    2  0.203  0.007  0.000  0.021  0.001  0.000  0.188  0.000  0.000  0.420
tot    0.407  0.014  0.000  0.042  0.001  0.000  0.376  0.000  0.000  0.840
 
band    14 # energy   24.36075214 # occ.  0.00000000
 
ion      s     py     pz     px    dxy    dyz    dz2    dxz  x2-y2    tot
    1  0.044  0.038  0.000  0.113  0.099  0.000  0.021  0.000  0.033  0.347
    2  0.044  0.038  0.000  0.113  0.099  0.000  0.021  0.000  0.033  0.347
tot    0.087  0.075  0.000  0.226  0.199  0.000  0.041  0.000  0.066  0.695
 
band    15 # energy   27.85779628 # occ.  0.00000000
 
ion      s     py     pz     px    dxy    dyz    dz2    dxz  x2-y2    tot
    1  0.000  0.188  0.000  0.063  0.027  0.000  0.000  0.000  0.082  0.360
    2  0.000  0.188  0.000  0.063  0.027  0.000  0.000  0.000  0.082  0.360
tot    0.000  0.376  0.000  0.125  0.054  0.000  0.000  0.000  0.163  0.719
 
band    16 # energy   29.55955798 # occ.  0.00000000
 
ion      s     py     pz     px    dxy    dyz    dz2    dxz  x2-y2    tot
    1  0.023  0.005  0.000  0.015  0.130  0.000  0.045  0.000  0.043  0.260
    2  0.023  0.005  0.000  0.015  0.130  0.000  0.045  0.000  0.043  0.260
tot    0.046  0.010  0.000  0.029  0.259  0.000  0.090  0.000  0.086  0.521
 
band    17 # energy   31.42599615 # occ.  0.00000000
 
ion      s     py     pz     px    dxy    dyz    dz2    dxz  x2-y2    tot
    1  0.000  0.000  0.044  0.000  0.000  0.049  0.000  0.148  0.000  0.242
    2  0.000  0.000  0.044  0.000  0.000  0.049  0.000  0.148  0.000  0.242
tot    0.000  0.000  0.088  0.000  0.000  0.099  0.000  0.297  0.000  0.484
 
band    18 # energy   33.79350857 # occ.  0.00000000
 
ion      s     py     pz     px    dxy    dyz    dz2    dxz  x2-y2    tot
    1  0.000  0.000  0.009  0.000  0.000  0.012  0.000  0.037  0.000  0.058
    2  0.000  0.000  0.009  0.000  0.000  0.012  0.000  0.037  0.000  0.058
tot    0.000  0.000  0.018  0.000  0.000  0.024  0.000  0.073  0.000  0.116
 
band    19 # energy   33.96814856 # occ.  0.00000000
 
ion      s     py     pz     px    dxy    dyz    dz2    dxz  x2-y2    tot
    1  0.038  0.045  0.000  0.136  0.049  0.000  0.033  0.000  0.016  0.319
    2  0.038  0.045  0.000  0.136  0.049  0.000  0.033  0.000  0.016  0.319
tot    0.077  0.091  0.000  0.272  0.098  0.000  0.067  0.000  0.033  0.637
 
band    20 # energy   36.06843786 # occ.  0.00000000
 
ion      s     py     pz     px    dxy    dyz    dz2    dxz  x2-y2    tot
    1  0.026  0.035  0.000  0.105  0.002  0.000  0.077  0.000  0.001  0.246
    2  0.026  0.035  0.000  0.105  0.002  0.000  0.077  0.000  0.001  0.246
tot    0.051  0.070  0.000  0.211  0.004  0.000  0.154  0.000  0.001  0.492
 
band    21 # energy   36.81182456 # occ.  0.00000000
 
ion      s     py     pz     px    dxy    dyz    dz2    dxz  x2-y2    tot
    1  0.000  0.000  0.000  0.000  0.000  0.257  0.000  0.086  0.000  0.343
    2  0.000  0.000  0.000  0.000  0.000  0.257  0.000  0.086  0.000  0.343
tot    0.000  0.000  0.000  0.000  0.000  0.514  0.000  0.171  0.000  0.685
 
band    22 # energy   37.13748972 # occ.  0.00000000
 
ion      s     py     pz     px    dxy    dyz    dz2    dxz  x2-y2    tot
    1  0.000  0.000  0.245  0.000  0.000  0.005  0.000  0.014  0.000  0.263
    2  0.000  0.000  0.245  0.000  0.000  0.005  0.000  0.014  0.000  0.263
tot    0.000  0.000  0.490  0.000  0.000  0.009  0.000  0.028  0.000  0.527
 
band    23 # energy   37.68563875 # occ.  0.00000000
 
ion      s     py     pz     px    dxy    dyz    dz2    dxz  x2-y2    tot
    1  0.000  0.099  0.000  0.033  0.081  0.000  0.000  0.000  0.242  0.454
    2  0.000  0.099  0.000  0.033  0.081  0.000  0.000  0.000  0.242  0.454
tot    0.000  0.197  0.000  0.066  0.161  0.000  0.000  0.000  0.484  0.908
 
band    24 # energy   38.85571745 # occ.  0.00000000
 
ion      s     py     pz     px    dxy    dyz    dz2    dxz  x2-y2    tot
    1  0.000  0.186  0.000  0.062  0.037  0.000  0.000  0.000  0.112  0.398
    2  0.000  0.186  0.000  0.062  0.037  0.000  0.000  0.000  0.112  0.398
tot    0.000  0.373  0.000  0.124  0.075  0.000  0.000  0.000  0.225  0.797
 
band    25 # energy   39.56133256 # occ.  0.00000000
 
ion      s     py     pz     px    dxy    dyz    dz2    dxz  x2-y2    tot
    1  0.047  0.006  0.000  0.017  0.047  0.000  0.354  0.000  0.016  0.487
    2  0.047  0.006  0.000  0.017  0.047  0.000  0.354  0.000  0.016  0.487
tot    0.094  0.012  0.000  0.035  0.093  0.000  0.709  0.000  0.031  0.974
 
band    26 # energy   41.81989349 # occ.  0.00000000
 
ion      s     py     pz     px    dxy    dyz    dz2    dxz  x2-y2    tot
    1  0.030  0.002  0.000  0.007  0.179  0.000  0.039  0.000  0.060  0.316
    2  0.030  0.002  0.000  0.007  0.179  0.000  0.039  0.000  0.060  0.316
tot    0.059  0.004  0.000  0.013  0.357  0.000  0.078  0.000  0.119  0.631
 
band    27 # energy   44.09630725 # occ.  0.00000000
 
ion      s     py     pz     px    dxy    dyz    dz2    dxz  x2-y2    tot
    1  0.000  0.000  0.000  0.000  0.000  0.181  0.000  0.060  0.000  0.242