<?xml version="1.0" encoding="ISO-8859-1"?>
<modeling>
 <generator>
  <i name="program" type="string">vasp </i>
  <i name="version" type="string">6.3.2  </i>
  <i name="subversion" type="string">27Jun22 (build Aug 12 2022 00:53:59) complex                          parallel </i>
  <i name="platform" type="string">tv2STD </i>
  <i name="date" type="string">2024 12 03 </i>
  <i name="time" type="string">02:39:25 </i>
 </generator>
 <incar>
  <i type="string" name="SYSTEM">Co-hcc</i>
  <i type="int" name="ISTART">     0</i>
  <i type="string" name="PREC">Accurate      normal | accurate</i>
  <i type="string" name="ALGO">Normal     Normal, Fast, Very_Fast</i>
  <i type="logical" name="ADDGRID"> F  </i>
  <i type="int" name="ISPIN">     2</i>
  <i type="int" name="ICHARG">     2</i>
  <i type="int" name="INIWAV">     1</i>
  <i type="int" name="NELM">   100</i>
  <i type="int" name="IBRION">     2</i>
  <i name="EDIFF">      0.00000100</i>
  <i name="EDIFFG">     -0.02000000</i>
  <i type="int" name="NSW">   100</i>
  <i type="int" name="ISIF">     2</i>
  <i type="int" name="ISYM">     1</i>
  <i name="ENCUT">    425.00000000</i>
  <v name="MAGMOM">      3.00000000      3.00000000</v>
  <i type="logical" name="LREAL"> F  </i>
  <i type="int" name="ISMEAR">     0</i>
  <i name="SIGMA">      0.05000000</i>
  <i type="int" name="NWRITE">     2</i>
  <i type="logical" name="LWAVE"> F  </i>
  <i type="logical" name="LCHARG"> F  </i>
  <i type="int" name="LORBIT">    11</i>
 </incar>
 <primitive_cell>
  <structure name="primitive_cell" >
   <crystal>
    <varray name="basis" >
     <v>       1.28352194      -2.22312521       0.00000000 </v>
     <v>       1.28352194       2.22312521       0.00000000 </v>
     <v>       0.00000000       0.00000000       4.14076318 </v>
    </varray>
    <i name="volume">     23.63075561 </i>
    <varray name="rec_basis" >
     <v>       0.38955314      -0.22490861       0.00000000 </v>
     <v>       0.38955314       0.22490861       0.00000000 </v>
     <v>       0.00000000       0.00000000       0.24150137 </v>
    </varray>
   </crystal>
   <varray name="positions" >
    <v>       0.33333333       0.66666667       0.25000000 </v>
    <v>       0.66666667       0.33333333       0.75000000 </v>
   </varray>
  </structure>
  <varray name="primitive_index" >
   <v type="int" >        1 </v>
   <v type="int" >        2 </v>
  </varray>
 </primitive_cell>
 <kpoints>
  <generation param="Gamma">
   <v type="int" name="divisions">      12       12        8 </v>
   <v name="usershift">      0.00000000       0.00000000       0.00000000 </v>
   <v name="genvec1">      0.08333333       0.00000000       0.00000000 </v>
   <v name="genvec2">      0.00000000       0.08333333       0.00000000 </v>
   <v name="genvec3">      0.00000000       0.00000000       0.12500000 </v>
   <v name="shift">      0.00000000       0.00000000       0.00000000 </v>
  </generation>
  <varray name="kpointlist" >
   <v>       0.00000000       0.00000000       0.00000000 </v>
   <v>       0.08333333       0.00000000       0.00000000 </v>
   <v>       0.16666667       0.00000000       0.00000000 </v>
   <v>       0.25000000       0.00000000       0.00000000 </v>
   <v>       0.33333333       0.00000000       0.00000000 </v>
   <v>       0.41666667      -0.00000000       0.00000000 </v>
   <v>       0.50000000       0.00000000       0.00000000 </v>
   <v>       0.08333333       0.08333333       0.00000000 </v>
   <v>       0.16666667       0.08333333       0.00000000 </v>
   <v>       0.25000000       0.08333333       0.00000000 </v>
   <v>       0.33333333       0.08333333       0.00000000 </v>
   <v>       0.41666667       0.08333333       0.00000000 </v>
   <v>       0.16666667       0.16666667       0.00000000 </v>
   <v>       0.25000000       0.16666667       0.00000000 </v>
   <v>       0.33333333       0.16666667       0.00000000 </v>
   <v>       0.41666667       0.16666667       0.00000000 </v>
   <v>       0.25000000       0.25000000       0.00000000 </v>
   <v>       0.33333333       0.25000000       0.00000000 </v>
   <v>       0.33333333       0.33333333       0.00000000 </v>
   <v>       0.00000000       0.00000000       0.12500000 </v>
   <v>       0.08333333       0.00000000       0.12500000 </v>
   <v>       0.16666667       0.00000000       0.12500000 </v>
   <v>       0.25000000       0.00000000       0.12500000 </v>
   <v>       0.33333333       0.00000000       0.12500000 </v>
   <v>       0.41666667      -0.00000000       0.12500000 </v>
   <v>       0.50000000       0.00000000       0.12500000 </v>
   <v>       0.08333333       0.08333333       0.12500000 </v>
   <v>       0.16666667       0.08333333       0.12500000 </v>
   <v>       0.25000000       0.08333333       0.12500000 </v>
   <v>       0.33333333       0.08333333       0.12500000 </v>
   <v>       0.41666667       0.08333333       0.12500000 </v>
   <v>       0.16666667       0.16666667       0.12500000 </v>
   <v>       0.25000000       0.16666667       0.12500000 </v>
   <v>       0.33333333       0.16666667       0.12500000 </v>
   <v>       0.41666667       0.16666667       0.12500000 </v>
   <v>       0.25000000       0.25000000       0.12500000 </v>
   <v>       0.33333333       0.25000000       0.12500000 </v>
   <v>       0.33333333       0.33333333       0.12500000 </v>
   <v>       0.00000000       0.00000000       0.25000000 </v>
   <v>       0.08333333       0.00000000       0.25000000 </v>
   <v>       0.16666667       0.00000000       0.25000000 </v>
   <v>       0.25000000       0.00000000       0.25000000 </v>
   <v>       0.33333333       0.00000000       0.25000000 </v>
   <v>       0.41666667      -0.00000000       0.25000000 </v>
   <v>       0.50000000       0.00000000       0.25000000 </v>
   <v>       0.08333333       0.08333333       0.25000000 </v>
   <v>       0.16666667       0.08333333       0.25000000 </v>
   <v>       0.25000000       0.08333333       0.25000000 </v>
   <v>       0.33333333       0.08333333       0.25000000 </v>
   <v>       0.41666667       0.08333333       0.25000000 </v>
   <v>       0.16666667       0.16666667       0.25000000 </v>
   <v>       0.25000000       0.16666667       0.25000000 </v>
   <v>       0.33333333       0.16666667       0.25000000 </v>
   <v>       0.41666667       0.16666667       0.25000000 </v>
   <v>       0.25000000       0.25000000       0.25000000 </v>
   <v>       0.33333333       0.25000000       0.25000000 </v>
   <v>       0.33333333       0.33333333       0.25000000 </v>
   <v>       0.00000000       0.00000000       0.37500000 </v>
   <v>       0.08333333       0.00000000       0.37500000 </v>
   <v>       0.16666667       0.00000000       0.37500000 </v>
   <v>       0.25000000       0.00000000       0.37500000 </v>
   <v>       0.33333333       0.00000000       0.37500000 </v>
   <v>       0.41666667      -0.00000000       0.37500000 </v>
   <v>       0.50000000       0.00000000       0.37500000 </v>
   <v>       0.08333333       0.08333333       0.37500000 </v>
   <v>       0.16666667       0.08333333       0.37500000 </v>
   <v>       0.25000000       0.08333333       0.37500000 </v>
   <v>       0.33333333       0.08333333       0.37500000 </v>
   <v>       0.41666667       0.08333333       0.37500000 </v>
   <v>       0.16666667       0.16666667       0.37500000 </v>
   <v>       0.25000000       0.16666667       0.37500000 </v>
   <v>       0.33333333       0.16666667       0.37500000 </v>
   <v>       0.41666667       0.16666667       0.37500000 </v>
   <v>       0.25000000       0.25000000       0.37500000 </v>
   <v>       0.33333333       0.25000000       0.37500000 </v>
   <v>       0.33333333       0.33333333       0.37500000 </v>
   <v>       0.00000000       0.00000000       0.50000000 </v>
   <v>       0.08333333       0.00000000       0.50000000 </v>
   <v>       0.16666667       0.00000000       0.50000000 </v>
   <v>       0.25000000       0.00000000       0.50000000 </v>
   <v>       0.33333333       0.00000000       0.50000000 </v>
   <v>       0.41666667      -0.00000000       0.50000000 </v>
   <v>       0.50000000       0.00000000       0.50000000 </v>
   <v>       0.08333333       0.08333333       0.50000000 </v>
   <v>       0.16666667       0.08333333       0.50000000 </v>
   <v>       0.25000000       0.08333333       0.50000000 </v>
   <v>       0.33333333       0.08333333       0.50000000 </v>
   <v>       0.41666667       0.08333333       0.50000000 </v>
   <v>       0.16666667       0.16666667       0.50000000 </v>
   <v>       0.25000000       0.16666667       0.50000000 </v>
   <v>       0.33333333       0.16666667       0.50000000 </v>
   <v>       0.41666667       0.16666667       0.50000000 </v>
   <v>       0.25000000       0.25000000       0.50000000 </v>
   <v>       0.33333333       0.25000000       0.50000000 </v>
   <v>       0.33333333       0.33333333       0.50000000 </v>
  </varray>
  <varray name="weights" >
   <v>       0.00086806 </v>
   <v>       0.00520833 </v>
   <v>       0.00520833 </v>
   <v>       0.00520833 </v>
   <v>       0.00520833 </v>
   <v>       0.00520833 </v>
   <v>       0.00260417 </v>
   <v>       0.00520833 </v>
   <v>       0.01041667 </v>
   <v>       0.01041667 </v>
   <v>       0.01041667 </v>
   <v>       0.01041667 </v>
   <v>       0.00520833 </v>
   <v>       0.01041667 </v>
   <v>       0.01041667 </v>
   <v>       0.00520833 </v>
   <v>       0.00520833 </v>
   <v>       0.01041667 </v>
   <v>       0.00173611 </v>
   <v>       0.00173611 </v>
   <v>       0.01041667 </v>
   <v>       0.01041667 </v>
   <v>       0.01041667 </v>
   <v>       0.01041667 </v>
   <v>       0.01041667 </v>
   <v>       0.00520833 </v>
   <v>       0.01041667 </v>
   <v>       0.02083333 </v>
   <v>       0.02083333 </v>
   <v>       0.02083333 </v>
   <v>       0.02083333 </v>
   <v>       0.01041667 </v>
   <v>       0.02083333 </v>
   <v>       0.02083333 </v>
   <v>       0.01041667 </v>
   <v>       0.01041667 </v>
   <v>       0.02083333 </v>
   <v>       0.00347222 </v>
   <v>       0.00173611 </v>
   <v>       0.01041667 </v>
   <v>       0.01041667 </v>
   <v>       0.01041667 </v>
   <v>       0.01041667 </v>
   <v>       0.01041667 </v>
   <v>       0.00520833 </v>
   <v>       0.01041667 </v>
   <v>       0.02083333 </v>
   <v>       0.02083333 </v>
   <v>       0.02083333 </v>
   <v>       0.02083333 </v>
   <v>       0.01041667 </v>
   <v>       0.02083333 </v>
   <v>       0.02083333 </v>
   <v>       0.01041667 </v>
   <v>       0.01041667 </v>
   <v>       0.02083333 </v>
   <v>       0.00347222 </v>
   <v>       0.00173611 </v>
   <v>       0.01041667 </v>
   <v>       0.01041667 </v>
   <v>       0.01041667 </v>
   <v>       0.01041667 </v>
   <v>       0.01041667 </v>
   <v>       0.00520833 </v>
   <v>       0.01041667 </v>
   <v>       0.02083333 </v>
   <v>       0.02083333 </v>
   <v>       0.02083333 </v>
   <v>       0.02083333 </v>
   <v>       0.01041667 </v>
   <v>       0.02083333 </v>
   <v>       0.02083333 </v>
   <v>       0.01041667 </v>
   <v>       0.01041667 </v>
   <v>       0.02083333 </v>
   <v>       0.00347222 </v>
   <v>       0.00086806 </v>
   <v>       0.00520833 </v>
   <v>       0.00520833 </v>
   <v>       0.00520833 </v>
   <v>       0.00520833 </v>
   <v>       0.00520833 </v>
   <v>       0.00260417 </v>
   <v>       0.00520833 </v>
   <v>       0.01041667 </v>
   <v>       0.01041667 </v>
   <v>       0.01041667 </v>
   <v>       0.01041667 </v>
   <v>       0.00520833 </v>
   <v>       0.01041667 </v>
   <v>       0.01041667 </v>
   <v>       0.00520833 </v>
   <v>       0.00520833 </v>
   <v>       0.01041667 </v>
   <v>       0.00173611 </v>
  </varray>
 </kpoints>
 <parameters>
  <separator name="general" >
   <i type="string" name="SYSTEM">Co-hcc</i>
   <i type="logical" name="LCOMPAT"> F  </i>
  </separator>
  <separator name="electronic" >
   <i type="string" name="PREC">accura</i>
   <i name="ENMAX">    425.00000000</i>
   <i name="ENAUG">    477.81800000</i>
   <i name="EDIFF">      0.00000100</i>
   <i type="int" name="IALGO">    38</i>
   <i type="int" name="IWAVPR">    11</i>
   <i type="int" name="NBANDS">    28</i>
   <i type="int" name="NBANDSLOW">    -1</i>
   <i type="int" name="NBANDSHIGH">    -1</i>
   <i name="NELECT">     18.00000000</i>
   <i type="int" name="TURBO">     0</i>
   <i type="int" name="IRESTART">     0</i>
   <i type="int" name="NREBOOT">     0</i>
   <i type="int" name="NMIN">     0</i>
   <i name="EREF">      0.00000000</i>
   <separator name="electronic smearing" >
    <i type="int" name="ISMEAR">     0</i>
    <i name="SIGMA">      0.05000000</i>
    <i name="KSPACING">      0.50000000</i>
    <i type="logical" name="KGAMMA"> T  </i>
    <i type="logical" name="KBLOWUP"> T  </i>
   </separator>
   <separator name="electronic projectors" >
    <i type="logical" name="LREAL"> F  </i>
    <v name="ROPT">      0.00000000</v>
    <i type="int" name="LMAXPAW">  -100</i>
    <i type="int" name="LMAXMIX">     2</i>
    <i type="logical" name="NLSPLINE"> F  </i>
   </separator>
   <separator name="electronic startup" >
    <i type="int" name="ISTART">     0</i>
    <i type="int" name="ICHARG">     2</i>
    <i type="int" name="INIWAV">     1</i>
   </separator>
   <separator name="electronic spin" >
    <i type="int" name="ISPIN">     2</i>
    <i type="logical" name="LNONCOLLINEAR"> F  </i>
    <v name="MAGMOM">      3.00000000      3.00000000</v>
    <i name="NUPDOWN">     -1.00000000</i>
    <i type="logical" name="LSORBIT"> F  </i>
    <v name="SAXIS">      0.00000000      0.00000000      1.00000000</v>
    <i type="logical" name="LSPIRAL"> F  </i>
    <v name="QSPIRAL">      0.00000000      0.00000000      0.00000000</v>
    <i type="logical" name="LZEROZ"> F  </i>
   </separator>
   <separator name="electronic exchange-correlation" >
    <i type="logical" name="LASPH"> F  </i>
    <i type="logical" name="LMETAGGA"> F  </i>
   </separator>
   <separator name="electronic convergence" >
    <i type="int" name="NELM">   100</i>
    <i type="int" name="NELMDL">    -5</i>
    <i type="int" name="NELMIN">     2</i>
    <i name="ENINI">    425.00000000</i>
    <separator name="electronic convergence detail" >
     <i type="logical" name="LDIAG"> T  </i>
     <i type="logical" name="LSUBROT"> F  </i>
     <i name="WEIMIN">      0.00100000</i>
     <i name="EBREAK">      0.00000001</i>
     <i name="DEPER">      0.30000000</i>
     <i type="int" name="NRMM">     4</i>
     <i name="TIME">      0.40000000</i>
    </separator>
   </separator>
   <separator name="electronic mixer" >
    <i name="AMIX">      0.40000000</i>
    <i name="BMIX">      1.00000000</i>
    <i name="AMIN">      0.10000000</i>
    <i name="AMIX_MAG">      1.60000000</i>
    <i name="BMIX_MAG">      1.00000000</i>
    <separator name="electronic mixer details" >
     <i type="int" name="IMIX">     4</i>
     <i type="logical" name="MIXFIRST"> F  </i>
     <i type="int" name="MAXMIX">   -45</i>
     <i name="WC">    100.00000000</i>
     <i type="int" name="INIMIX">     1</i>
     <i type="int" name="MIXPRE">     1</i>
     <i type="int" name="MREMOVE">     5</i>
    </separator>
   </separator>
   <separator name="electronic dipolcorrection" >
    <i type="logical" name="LDIPOL"> F  </i>
    <i type="logical" name="LMONO"> F  </i>
    <i type="int" name="IDIPOL">     0</i>
    <i name="EPSILON">      1.00000000</i>
    <v name="DIPOL">   -100.00000000   -100.00000000   -100.00000000</v>
    <i name="EFIELD">      0.00000000</i>
   </separator>
  </separator>
  <separator name="grids" >
   <i type="int" name="NGX">    18</i>
   <i type="int" name="NGY">    18</i>
   <i type="int" name="NGZ">    28</i>
   <i type="int" name="NGXF">    36</i>
   <i type="int" name="NGYF">    36</i>
   <i type="int" name="NGZF">    56</i>
   <i type="logical" name="ADDGRID"> F  </i>
  </separator>
  <separator name="ionic" >
   <i type="int" name="NSW">   100</i>
   <i type="int" name="IBRION">     2</i>
   <i type="int" name="MDALGO">     0</i>
   <i type="int" name="ISIF">     2</i>
   <i name="PSTRESS">      0.00000000</i>
   <i name="EDIFFG">     -0.02000000</i>
   <i type="int" name="NFREE">     1</i>
   <i name="POTIM">      0.50000000</i>
   <i name="SMASS">     -3.00000000</i>
   <i name="SCALEE">      1.00000000</i>
  </separator>
  <separator name="ionic md" >
   <i name="TEBEG">      0.00010000</i>
   <i name="TEEND">      0.00010000</i>
   <i type="int" name="NBLOCK">     1</i>
   <i type="int" name="KBLOCK">   100</i>
   <i type="int" name="NPACO">   256</i>
   <i name="APACO">     10.00000000</i>
  </separator>
  <separator name="symmetry" >
   <i type="int" name="ISYM">     1</i>
   <i name="SYMPREC">      0.00001000</i>
  </separator>
  <separator name="dos" >
   <i type="int" name="LORBIT">    11</i>
   <v name="RWIGS">     -1.00000000</v>
   <i type="int" name="NEDOS">   301</i>
   <i name="EMIN">     10.00000000</i>
   <i name="EMAX">    -10.00000000</i>
   <i name="EFERMI">      0.00000000</i>
  </separator>
  <separator name="writing" >
   <i type="int" name="NWRITE">     2</i>
   <i type="logical" name="LWAVE"> F  </i>
   <i type="logical" name="LDOWNSAMPLE"> F  </i>
   <i type="logical" name="LCHARG"> F  </i>
   <i type="logical" name="LPARD"> F  </i>
   <i type="logical" name="LVTOT"> F  </i>
   <i type="logical" name="LVHAR"> F  </i>
   <i type="logical" name="LELF"> F  </i>
   <i type="logical" name="LOPTICS"> F  </i>
   <v name="STM">      0.00000000      0.00000000      0.00000000      0.00000000      0.00000000      0.00000000      0.00000000</v>
  </separator>
  <separator name="performance" >
   <i type="int" name="NPAR">    28</i>
   <i type="int" name="NSIM">     4</i>
   <i type="int" name="NBLK">    -1</i>
   <i type="logical" name="LPLANE"> T  </i>
   <i type="logical" name="LSCALAPACK"> T  </i>
   <i type="logical" name="LSCAAWARE"> T  </i>
   <i type="logical" name="LSCALU"> F  </i>
   <i type="logical" name="LASYNC"> F  </i>
   <i type="logical" name="LORBITALREAL"> F  </i>
  </separator>
  <separator name="miscellaneous" >
   <i type="int" name="IDIOT">     3</i>
   <i type="int" name="PHON_NSTRUCT">    -1</i>
   <i type="logical" name="LMUSIC"> F  </i>
   <v name="POMASS">     58.93300000</v>
   <v name="DARWINR">      0.00000000</v>
   <v name="DARWINV">      1.00000000</v>
   <i type="logical" name="LCORR"> T  </i>
  </separator>
  <i type="logical" name="GGA_COMPAT"> T  </i>
  <i type="logical" name="LBERRY"> F  </i>
  <i type="int" name="ICORELEVEL">     0</i>
  <i type="logical" name="LDAU"> F  </i>
  <i type="int" name="I_CONSTRAINED_M">     0</i>
  <separator name="electronic exchange-correlation" >
   <i type="string" name="GGA">--</i>
   <i type="int" name="VOSKOWN">     0</i>
   <i type="logical" name="LHFCALC"> F  </i>
   <i type="string" name="PRECFOCK"></i>
   <i type="logical" name="LSYMGRAD"> F  </i>
   <i type="logical" name="LHFONE"> F  </i>
   <i type="logical" name="LRHFCALC"> F  </i>
   <i type="logical" name="LTHOMAS"> F  </i>
   <i type="logical" name="LMODELHF"> F  </i>
   <i type="logical" name="LFOCKACE"> F  </i>
   <i name="ENCUT4O">     -1.00000000</i>
   <i type="int" name="EXXOEP">     0</i>
   <i type="int" name="FOURORBIT">     0</i>
   <i name="AEXX">      0.00000000</i>
   <i name="HFALPHA">      0.00000000</i>
   <i name="MCALPHA">      0.00000000</i>
   <i name="ALDAX">      1.00000000</i>
   <i name="AGGAX">      1.00000000</i>
   <i name="ALDAC">      1.00000000</i>
   <i name="AGGAC">      1.00000000</i>
   <i type="int" name="NKREDX">     1</i>
   <i type="int" name="NKREDY">     1</i>
   <i type="int" name="NKREDZ">     1</i>
   <i type="logical" name="SHIFTRED"> F  </i>
   <i type="logical" name="ODDONLY"> F  </i>
   <i type="logical" name="EVENONLY"> F  </i>
   <i type="int" name="LMAXFOCK">     0</i>
   <i type="int" name="NMAXFOCKAE">     0</i>
   <i type="logical" name="LFOCKAEDFT"> F  </i>
   <i name="HFSCREEN">      0.00000000</i>
   <i name="HFSCREENC">      0.00000000</i>
   <i type="int" name="NBANDSGWLOW">     0</i>
  </separator>
  <separator name="vdW DFT" >
   <i type="logical" name="LUSE_VDW"> F  </i>
   <i name="Zab_VDW">     -0.84910000</i>
   <i name="PARAM1">      0.12340000</i>
   <i name="PARAM2">      1.00000000</i>
   <i name="PARAM3">      0.00000000</i>
  </separator>
  <separator name="model GW" >
   <i type="int" name="MODEL_GW">     0</i>
   <i name="MODEL_EPS0">      7.08922668</i>
   <i name="MODEL_ALPHA">      1.00000000</i>
  </separator>
  <separator name="linear response parameters" >
   <i type="logical" name="LEPSILON"> F  </i>
   <i type="logical" name="LRPA"> F  </i>
   <i type="logical" name="LNABLA"> F  </i>
   <i type="logical" name="LVEL"> F  </i>
   <i name="CSHIFT">      0.10000000</i>
   <i name="OMEGAMAX">     -1.00000000</i>
   <i name="DEG_THRESHOLD">      0.00200000</i>
   <i name="RTIME">     -0.10000000</i>
   <i name="WPLASMAI">      0.00000000</i>
   <v name="DFIELD">      0.00000000      0.00000000      0.00000000</v>
   <v name="WPLASMA">      0.00000000      0.00000000      0.00000000      0.00000000      0.00000000      0.00000000      0.00000000      0.00000000      0.00000000</v>
  </separator>
  <separator name="orbital magnetization" >
   <i type="logical" name="NUCIND"> F  </i>
   <v name="MAGPOS">      0.00000000      0.00000000      0.00000000</v>
   <i type="logical" name="LNICSALL"> T  </i>
   <i type="logical" name="ORBITALMAG"> F  </i>
   <i type="logical" name="LMAGBLOCH"> F  </i>
   <i type="logical" name="LCHIMAG"> F  </i>
   <i type="logical" name="LGAUGE"> T  </i>
   <i type="int" name="MAGATOM">     0</i>
   <v name="MAGDIPOL">      0.00000000      0.00000000      0.00000000</v>
   <v name="AVECCONST">      0.00000000      0.00000000      0.00000000</v>
  </separator>
  <separator name="response functions" >
   <i type="logical" name="LFINITE_TEMPERATURE"> F  </i>
   <i type="logical" name="LADDER"> F  </i>
   <i type="logical" name="LRPAFORCE"> F  </i>
   <i type="logical" name="LFXC"> F  </i>
   <i type="logical" name="LHARTREE"> T  </i>
   <i type="int" name="IBSE">     0</i>
   <v type="int" name="KPOINT">    -1     0     0     0</v>
   <i type="logical" name="LTCTC"> F  </i>
   <i type="logical" name="LTCTE"> F  </i>
   <i type="logical" name="LTETE"> F  </i>
   <i type="logical" name="LTRIPLET"> F  </i>
   <i type="logical" name="LFXCEPS"> F  </i>
   <i type="logical" name="LFXHEG"> F  </i>
   <i type="int" name="NATURALO">     2</i>
   <i type="logical" name="LHOLEGF"> F  </i>
   <i type="logical" name="L2ORDER"> F  </i>
   <i type="logical" name="LDMP1"> F  </i>
   <i type="logical" name="LMP2LT"> F  </i>
   <i type="logical" name="LSMP2LT"> F  </i>
   <i type="logical" name="LGWLF"> F  </i>
   <i name="ENCUTGW">     -2.00000000</i>
   <i name="ENCUTGWSOFT">     -2.00000000</i>
   <i name="ENCUTLF">     -1.00000000</i>
   <i type="logical" name="LESF_SPLINES"> F  </i>
   <i type="int" name="LMAXMP2">    -1</i>
   <i name="SCISSOR">      0.00000000</i>
   <i type="int" name="NOMEGA">     0</i>
   <i type="int" name="NOMEGAR">     0</i>
   <i type="int" name="NBANDSGW">    -1</i>
   <i type="int" name="NBANDSO">    -1</i>
   <i type="int" name="NBANDSV">    -1</i>
   <i type="int" name="NELMGW">     1</i>
   <i type="int" name="NELMHF">     1</i>
   <i type="int" name="DIM">     3</i>
   <i type="int" name="IESPILON">     4</i>
   <i type="int" name="ANTIRES">     0</i>
   <i name="OMEGAMAX">    -30.00000000</i>
   <i name="OMEGAMIN">    -30.00000000</i>
   <i name="OMEGATL">   -200.00000000</i>
   <i type="int" name="OMEGAGRID">     0</i>
   <i name="CSHIFT">     -0.10000000</i>
   <i type="logical" name="LSELFENERGY"> F  </i>
   <i type="logical" name="LSPECTRAL"> F  </i>
   <i type="logical" name="LSPECTRALGW"> F  </i>
   <i type="logical" name="LSINGLES"> F  </i>
   <i type="logical" name="LFERMIGW"> F  </i>
   <i type="logical" name="ODDONLYGW"> F  </i>
   <i type="logical" name="EVENONLYGW"> F  </i>
   <i type="int" name="NKREDLFX">     1</i>
   <i type="int" name="NKREDLFY">     1</i>
   <i type="int" name="NKREDLFZ">     1</i>
   <i type="int" name="MAXMEM">  2800</i>
   <i type="int" name="TELESCOPE">     0</i>
   <i type="int" name="NTAUPAR">    -1</i>
   <i type="int" name="NOMEGAPAR">    -1</i>
   <i name="DAMP_NEWTON">      0.80000001</i>
   <i name="LAMBDA">      1.00000000</i>
  </separator>
  <separator name="External order field" >
   <i name="OFIELD_KAPPA">      0.00000000</i>
   <v name="OFIELD_K">      0.00000000      0.00000000      0.00000000</v>
   <i name="OFIELD_Q6_NEAR">      0.00000000</i>
   <i name="OFIELD_Q6_FAR">      0.00000000</i>
   <i name="OFIELD_A">      0.00000000</i>
  </separator>
  <separator name="optional k-points parameters" >
   <i type="int" name="KPOINTS_OPT_MODE">     1</i>
   <i type="logical" name="LKPOINTS_OPT"> F  </i>
  </separator>
 </parameters>
 <atominfo>
  <atoms>       2 </atoms>
  <types>       1 </types>
  <array name="atoms" >
   <dimension dim="1">ion</dimension>
   <field type="string">element</field>
   <field type="int">atomtype</field>
   <set>
    <rc><c>Co</c><c>   1</c></rc>
    <rc><c>Co</c><c>   1</c></rc>
   </set>
  </array>
  <array name="atomtypes" >
   <dimension dim="1">type</dimension>
   <field type="int">atomspertype</field>
   <field type="string">element</field>
   <field>mass</field>
   <field>valence</field>
   <field type="string">pseudopotential</field>
   <set>
    <rc><c>   2</c><c>Co</c><c>     58.93300000</c><c>      9.00000000</c><c>  PAW_PBE Co 02Aug2007                  </c></rc>
   </set>
  </array>
 </atominfo>
 <structure name="initialpos" >
  <crystal>
   <varray name="basis" >
    <v>       1.28352194      -2.22312521       0.00000000 </v>
    <v>       1.28352194       2.22312521       0.00000000 </v>
    <v>       0.00000000       0.00000000       4.14076318 </v>
   </varray>
   <i name="volume">     23.63075561 </i>
   <varray name="rec_basis" >
    <v>       0.38955314      -0.22490861       0.00000000 </v>
    <v>       0.38955314       0.22490861       0.00000000 </v>
    <v>       0.00000000       0.00000000       0.24150137 </v>
   </varray>
  </crystal>
  <varray name="positions" >
   <v>       0.33333333       0.66666667       0.25000000 </v>
   <v>       0.66666667       0.33333333       0.75000000 </v>
  </varray>
 </structure>
 <calculation>
  <scstep>
   <time name="dav">    0.91    0.91</time>
   <time name="total">    0.92    0.92</time>
   <energy>
    <i name="alphaZ">     71.69925768 </i>
    <i name="ewald">  -1479.00441265 </i>
    <i name="hartreedc">   -318.30830722 </i>
    <i name="XCdc">     35.09756685 </i>
    <i name="pawpsdc">   1439.98163886 </i>
    <i name="pawaedc">  -1545.88690193 </i>
    <i name="eentropy">     -0.00288227 </i>
    <i name="bandstr">    169.88082291 </i>
    <i name="atom">   1626.72322989 </i>
    <i name="e_fr_energy">      0.18001211 </i>
    <i name="e_wo_entrp">      0.18289438 </i>
    <i name="e_0_energy">      0.18145325 </i>
   </energy>
  </scstep>
  <scstep>
   <time name="dav">    1.43    1.44</time>
   <time name="total">    1.43    1.44</time>
   <energy>
    <i name="e_fr_energy">    -15.61874525 </i>
    <i name="e_wo_entrp">    -15.61678192 </i>
    <i name="e_0_energy">    -15.61776359 </i>
   </energy>
  </scstep>
  <scstep>
   <time name="dav">    1.47    1.47</time>
   <time name="total">    1.47    1.47</time>
   <energy>
    <i name="e_fr_energy">    -15.68204202 </i>
    <i name="e_wo_entrp">    -15.68008557 </i>
    <i name="e_0_energy">    -15.68106379 </i>
   </energy>
  </scstep>
  <scstep>
   <time name="dav">    2.19    2.20</time>
   <time name="total">    2.20    2.21</time>
   <energy>
    <i name="e_fr_energy">    -15.68223336 </i>
    <i name="e_wo_entrp">    -15.68027708 </i>
    <i name="e_0_energy">    -15.68125522 </i>
   </energy>
  </scstep>
  <scstep>
   <time name="dav">    1.58    1.59</time>
   <time name="total">    1.62    1.63</time>
   <energy>
    <i name="e_fr_energy">    -15.68223338 </i>
    <i name="e_wo_entrp">    -15.68027709 </i>
    <i name="e_0_energy">    -15.68125523 </i>
   </energy>
  </scstep>
  <scstep>
   <time name="dav">    2.76    2.78</time>
   <time name="total">    2.81    2.82</time>
   <energy>
    <i name="e_fr_energy">    -14.53265150 </i>
    <i name="e_wo_entrp">    -14.53015234 </i>
    <i name="e_0_energy">    -14.53140192 </i>
   </energy>
  </scstep>
  <scstep>
   <time name="dav">    2.54    2.55</time>
   <time name="total">    2.59    2.60</time>
   <energy>
    <i name="e_fr_energy">    -14.00116441 </i>
    <i name="e_wo_entrp">    -13.99834497 </i>
    <i name="e_0_energy">    -13.99975469 </i>
   </energy>
  </scstep>
  <scstep>
   <time name="dav">    2.11    2.12</time>
   <time name="total">    2.15    2.16</time>
   <energy>
    <i name="e_fr_energy">    -13.98406229 </i>
    <i name="e_wo_entrp">    -13.98109296 </i>
    <i name="e_0_energy">    -13.98257762 </i>
   </energy>
  </scstep>
  <scstep>
   <time name="dav">    2.77    2.78</time>
   <time name="total">    2.81    2.82</time>
   <energy>
    <i name="e_fr_energy">    -13.97130349 </i>
    <i name="e_wo_entrp">    -13.96811836 </i>
    <i name="e_0_energy">    -13.96971092 </i>
   </energy>
  </scstep>
  <scstep>
   <time name="dav">    2.75    2.76</time>
   <time name="total">    2.79    2.80</time>
   <energy>
    <i name="e_fr_energy">    -13.97014494 </i>
    <i name="e_wo_entrp">    -13.96694081 </i>
    <i name="e_0_energy">    -13.96854288 </i>
   </energy>
  </scstep>
  <scstep>
   <time name="dav">    2.07    2.08</time>
   <time name="total">    2.12    2.13</time>
   <energy>
    <i name="e_fr_energy">    -13.97018479 </i>
    <i name="e_wo_entrp">    -13.96704195 </i>
    <i name="e_0_energy">    -13.96861337 </i>
   </energy>
  </scstep>
  <scstep>
   <time name="dav">    2.48    2.49</time>
   <time name="total">    2.52    2.53</time>
   <energy>
    <i name="e_fr_energy">    -13.97017865 </i>
    <i name="e_wo_entrp">    -13.96704291 </i>
    <i name="e_0_energy">    -13.96861078 </i>
   </energy>
  </scstep>
  <scstep>
   <time name="dav">    2.72    2.73</time>
   <time name="total">    2.73    2.74</time>
   <energy>
    <i name="alphaZ">     71.69925768 </i>
    <i name="ewald">  -1479.00441265 </i>
    <i name="hartreedc">   -282.89580691 </i>
    <i name="XCdc">     32.44529900 </i>
    <i name="pawpsdc">   1721.56354737 </i>
    <i name="pawaedc">  -1826.97247179 </i>
    <i name="eentropy">     -0.00312899 </i>
    <i name="bandstr">    122.47430753 </i>
    <i name="atom">   1626.72322989 </i>
    <i name="e_fr_energy">    -13.97017886 </i>
    <i name="e_wo_entrp">    -13.96704988 </i>
    <i name="e_0_energy">    -13.96861437 </i>
   </energy>
  </scstep>
  <structure>
   <crystal>
    <varray name="basis" >
     <v>       1.28352194      -2.22312521       0.00000000 </v>
     <v>       1.28352194       2.22312521       0.00000000 </v>
     <v>       0.00000000       0.00000000       4.14076318 </v>
    </varray>
    <i name="volume">     23.63075561 </i>
    <varray name="rec_basis" >
     <v>       0.38955314      -0.22490861       0.00000000 </v>
     <v>       0.38955314       0.22490861       0.00000000 </v>
     <v>       0.00000000       0.00000000       0.24150137 </v>
    </varray>
   </crystal>
   <varray name="positions" >
    <v>       0.33333333       0.66666667       0.25000000 </v>
    <v>       0.66666667       0.33333333       0.75000000 </v>
   </varray>
  </structure>
  <varray name="forces" >
   <v>      -0.00000000       0.00000000      -0.00000000 </v>
   <v>       0.00000000      -0.00000000       0.00000000 </v>
  </varray>
  <varray name="stress" >
   <v>    -150.84490483      -0.00000000       0.00000000 </v>
   <v>       0.00000000    -150.84490483      -0.00000000 </v>
   <v>      -0.00000000       0.00000000    -151.00693236 </v>
  </varray>
  <energy>
   <i name="e_fr_energy">    -13.97017886 </i>
   <i name="e_wo_entrp">    -13.96704988 </i>
   <i name="e_0_energy">    -13.96861437 </i>
  </energy>
  <time name="totalsc">   28.40   28.53</time>
  <eigenvalues>
   <array>
    <dimension dim="1">band</dimension>
    <dimension dim="2">kpoint</dimension>
    <dimension dim="3">spin</dimension>
    <field>eigene</field>
    <field>occ</field>
    <set>
     <set comment="spin 1">
      <set comment="kpoint 1">
       <r>    0.6807    1.0000 </r>
       <r>    4.3290    1.0000 </r>
       <r>    6.5740    1.0000 </r>
       <r>    6.5844    1.0000 </r>
       <r>    6.5844    1.0000 </r>
       <r>    6.8548    1.0000 </r>
       <r>    6.8548    1.0000 </r>
       <r>    7.1464    1.0000 </r>
       <r>    7.1464    1.0000 </r>
       <r>    8.1162    1.0000 </r>
       <r>    8.1162    1.0000 </r>
       <r>    9.1057    0.1699 </r>
       <r>   14.7429    0.0000 </r>
       <r>   30.3145    0.0000 </r>
       <r>   32.0446    0.0000 </r>
       <r>   32.0446    0.0000 </r>
       <r>   33.1706    0.0000 </r>
       <r>   33.4888    0.0000 </r>
       <r>   33.4888    0.0000 </r>
       <r>   33.6830    0.0000 </r>
       <r>   38.2978    0.0000 </r>
       <r>   38.2978    0.0000 </r>
       <r>   38.7451    0.0000 </r>
       <r>   39.6036    0.0000 </r>
       <r>   40.9923    0.0000 </r>
       <r>   40.9923    0.0000 </r>
       <r>   41.1818    0.0000 </r>
       <r>   42.8565    0.0000 </r>
      </set>
      <set comment="kpoint 2">
       <r>    0.9082    1.0000 </r>
       <r>    4.4602    1.0000 </r>
       <r>    6.3829    1.0000 </r>
       <r>    6.6830    1.0000 </r>
       <r>    6.7440    1.0000 </r>
       <r>    6.8167    1.0000 </r>
       <r>    6.9419    1.0000 </r>
       <r>    7.0248    1.0000 </r>
       <r>    7.0855    1.0000 </r>
       <r>    7.5074    1.0000 </r>
       <r>    8.1419    1.0000 </r>
       <r>   10.0004    0.0000 </r>
       <r>   14.7916    0.0000 </r>
       <r>   28.1461    0.0000 </r>
       <r>   30.0995    0.0000 </r>
       <r>   30.4441    0.0000 </r>
       <r>   33.6932    0.0000 </r>
       <r>   33.9053    0.0000 </r>
       <r>   35.2641    0.0000 </r>
       <r>   35.6808    0.0000 </r>
       <r>   36.4237    0.0000 </r>
       <r>   37.7010    0.0000 </r>
       <r>   38.3134    0.0000 </r>
       <r>   38.3764    0.0000 </r>
       <r>   40.3421    0.0000 </r>
       <r>   40.5675    0.0000 </r>
       <r>   41.9957    0.0000 </r>
       <r>   42.5666    0.0000 </r>
      </set>
      <set comment="kpoint 3">
       <r>    1.5684    1.0000 </r>
       <r>    4.7844    1.0000 </r>
       <r>    6.1492    1.0000 </r>
       <r>    6.4415    1.0000 </r>
       <r>    6.6702    1.0000 </r>
       <r>    6.9350    1.0000 </r>
       <r>    6.9613    1.0000 </r>
       <r>    7.0095    1.0000 </r>
       <r>    7.1420    1.0000 </r>
       <r>    7.1861    1.0000 </r>
       <r>    8.1970    1.0000 </r>
       <r>   11.4504    0.0000 </r>
       <r>   14.9594    0.0000 </r>
       <r>   24.3608    0.0000 </r>
       <r>   27.8578    0.0000 </r>
       <r>   29.5596    0.0000 </r>
       <r>   31.4260    0.0000 </r>
       <r>   33.7935    0.0000 </r>
       <r>   33.9681    0.0000 </r>
       <r>   36.0684    0.0000 </r>
       <r>   36.8118    0.0000 </r>
       <r>   37.1375    0.0000 </r>
       <r>   37.6856    0.0000 </r>
       <r>   38.8557    0.0000 </r>
       <r>   39.5613    0.0000 </r>
       <r>   41.8199    0.0000 </r>
       <r>   44.0963    0.0000 </r>
       <r>   44.7629    0.0000 </r>
      </set>
      <set comment="kpoint 4">
       <r>    2.5742    1.0000 </r>
       <r>    5.0457    1.0000 </r>
       <r>    5.8061    1.0000 </r>
       <r>    6.0129    1.0000 </r>
       <r>    6.5935    1.0000 </r>
       <r>    6.7532    1.0000 </r>
       <r>    6.9642    1.0000 </r>
       <r>    7.3635    1.0000 </r>
       <r>    7.3826    1.0000 </r>
       <r>    7.5359    1.0000 </r>
       <r>    8.2495    1.0000 </r>
       <r>   13.1204    0.0000 </r>
       <r>   15.2852    0.0000 </r>
       <r>   20.7666    0.0000 </r>
       <r>   25.9207    0.0000 </r>
       <r>   28.1517    0.0000 </r>
       <r>   28.3418    0.0000 </r>
       <r>   31.4727    0.0000 </r>
       <r>   32.7440    0.0000 </r>
       <r>   35.6342    0.0000 </r>
       <r>   36.1009    0.0000 </r>
       <r>   36.8528    0.0000 </r>
       <r>   37.7916    0.0000 </r>
       <r>   40.6418    0.0000 </r>
       <r>   42.0290    0.0000 </r>
       <r>   44.6400    0.0000 </r>
       <r>   45.9548    0.0000 </r>
       <r>   46.0116    0.0000 </r>
      </set>
      <set comment="kpoint 5">
       <r>    3.6863    1.0000 </r>
       <r>    4.9908    1.0000 </r>
       <r>    5.3411    1.0000 </r>
       <r>    6.1239    1.0000 </r>
       <r>    6.5890    1.0000 </r>
       <r>    6.7043    1.0000 </r>
       <r>    6.8119    1.0000 </r>
       <r>    7.7895    1.0000 </r>
       <r>    7.9144    1.0000 </r>
       <r>    7.9877    1.0000 </r>
       <r>    8.2859    1.0000 </r>
       <r>   14.9618    0.0000 </r>
       <r>   15.4646    0.0000 </r>
       <r>   17.9553    0.0000 </r>
       <r>   24.3941    0.0000 </r>
       <r>   25.1645    0.0000 </r>
       <r>   26.0066    0.0000 </r>
       <r>   30.1360    0.0000 </r>
       <r>   31.6428    0.0000 </r>
       <r>   33.9678    0.0000 </r>
       <r>   35.6124    0.0000 </r>
       <r>   37.5002    0.0000 </r>
       <r>   39.5158    0.0000 </r>
       <r>   41.8090    0.0000 </r>
       <r>   45.4332    0.0000 </r>
       <r>   45.4666    0.0000 </r>
       <r>   46.1074    0.0000 </r>
       <r>   47.9840    0.0000 </r>
      </set>
      <set comment="kpoint 6">
       <r>    4.4286    1.0000 </r>
       <r>    4.8260    1.0000 </r>
       <r>    5.0631    1.0000 </r>
       <r>    6.4657    1.0000 </r>
       <r>    6.4765    1.0000 </r>
       <r>    6.7050    1.0000 </r>
       <r>    6.8824    1.0000 </r>
       <r>    8.1058    1.0000 </r>
       <r>    8.2264    1.0000 </r>
       <r>    8.3054    1.0000 </r>
       <r>    9.0164    0.9417 </r>
       <r>   13.6757    0.0000 </r>
       <r>   16.8837    0.0000 </r>
       <r>   17.9236    0.0000 </r>
       <r>   22.5650    0.0000 </r>
       <r>   23.3932    0.0000 </r>
       <r>   23.3972    0.0000 </r>
       <r>   29.7088    0.0000 </r>
       <r>   30.9113    0.0000 </r>
       <r>   32.8968    0.0000 </r>
       <r>   35.3305    0.0000 </r>
       <r>   37.8932    0.0000 </r>
       <r>   41.8059    0.0000 </r>
       <r>   42.4707    0.0000 </r>
       <r>   45.5529    0.0000 </r>
       <r>   46.1666    0.0000 </r>
       <r>   47.4603    0.0000 </r>
       <r>   48.8788    0.0000 </r>
      </set>
      <set comment="kpoint 7">
       <r>    4.6742    1.0000 </r>
       <r>    4.7028    1.0000 </r>
       <r>    4.9710    1.0000 </r>
       <r>    6.4367    1.0000 </r>
       <r>    6.6664    1.0000 </r>
       <r>    6.6960    1.0000 </r>
       <r>    6.9484    1.0000 </r>
       <r>    8.2198    1.0000 </r>
       <r>    8.3114    1.0000 </r>
       <r>    8.3520    1.0000 </r>
       <r>   10.1529    0.0000 </r>
       <r>   11.9642    0.0000 </r>
       <r>   18.1478    0.0000 </r>
       <r>   18.6885    0.0000 </r>
       <r>   21.0772    0.0000 </r>
       <r>   21.9690    0.0000 </r>
       <r>   23.0476    0.0000 </r>
       <r>   29.6014    0.0000 </r>
       <r>   30.6596    0.0000 </r>
       <r>   32.5263    0.0000 </r>
       <r>   35.2387    0.0000 </r>
       <r>   38.0383    0.0000 </r>
       <r>   42.6515    0.0000 </r>
       <r>   44.3011    0.0000 </r>
       <r>   44.6909    0.0000 </r>
       <r>   45.4515    0.0000 </r>
       <r>   46.1756    0.0000 </r>
       <r>   49.6103    0.0000 </r>
      </set>
      <set comment="kpoint 8">
       <r>    1.3528    1.0000 </r>
       <r>    4.6930    1.0000 </r>
       <r>    6.1980    1.0000 </r>
       <r>    6.6555    1.0000 </r>
       <r>    6.7272    1.0000 </r>
       <r>    6.8808    1.0000 </r>
       <r>    6.8845    1.0000 </r>
       <r>    6.9134    1.0000 </r>
       <r>    7.1350    1.0000 </r>
       <r>    7.2454    1.0000 </r>
       <r>    8.1742    1.0000 </r>
       <r>   11.0391    0.0000 </r>
       <r>   14.9015    0.0000 </r>
       <r>   26.1271    0.0000 </r>
       <r>   26.6283    0.0000 </r>
       <r>   31.8892    0.0000 </r>
       <r>   32.9763    0.0000 </r>
       <r>   33.1327    0.0000 </r>
       <r>   33.1504    0.0000 </r>
       <r>   35.9383    0.0000 </r>
       <r>   36.4035    0.0000 </r>
       <r>   36.8967    0.0000 </r>
       <r>   39.4435    0.0000 </r>
       <r>   39.8253    0.0000 </r>
       <r>   39.9696    0.0000 </r>
       <r>   40.1414    0.0000 </r>
       <r>   41.1752    0.0000 </r>
       <r>   45.0859    0.0000 </r>
      </set>
      <set comment="kpoint 9">
       <r>    2.1932    1.0000 </r>
       <r>    5.0249    1.0000 </r>
       <r>    5.9666    1.0000 </r>
       <r>    6.0418    1.0000 </r>
       <r>    6.6265    1.0000 </r>
       <r>    6.7228    1.0000 </r>
       <r>    7.1016    1.0000 </r>
       <r>    7.1018    1.0000 </r>
       <r>    7.2515    1.0000 </r>
       <r>    7.4964    1.0000 </r>
       <r>    8.2142    1.0000 </r>
       <r>   12.5141    0.0000 </r>
       <r>   15.1659    0.0000 </r>
       <r>   22.6112    0.0000 </r>
       <r>   24.7209    0.0000 </r>
       <r>   29.8359    0.0000 </r>
       <r>   30.6476    0.0000 </r>
       <r>   31.8006    0.0000 </r>
       <r>   33.0327    0.0000 </r>
       <r>   34.0347    0.0000 </r>
       <r>   36.3144    0.0000 </r>
       <r>   37.5816    0.0000 </r>
       <r>   39.3613    0.0000 </r>
       <r>   39.7996    0.0000 </r>
       <r>   41.5883    0.0000 </r>
       <r>   43.3468    0.0000 </r>
       <r>   43.5722    0.0000 </r>
       <r>   45.3724    0.0000 </r>
      </set>
      <set comment="kpoint 10">
       <r>    3.2858    1.0000 </r>
       <r>    5.1365    1.0000 </r>
       <r>    5.5321    1.0000 </r>
       <r>    5.9144    1.0000 </r>
       <r>    6.5615    1.0000 </r>
       <r>    6.6404    1.0000 </r>
       <r>    6.9332    1.0000 </r>
       <r>    7.4497    1.0000 </r>
       <r>    7.6846    1.0000 </r>
       <r>    7.9917    1.0000 </r>
       <r>    8.2481    1.0000 </r>
       <r>   14.2356    0.0000 </r>
       <r>   15.5828    0.0000 </r>
       <r>   19.2579    0.0000 </r>
       <r>   23.2741    0.0000 </r>
       <r>   26.7333    0.0000 </r>
       <r>   27.8909    0.0000 </r>
       <r>   30.5973    0.0000 </r>
       <r>   32.1791    0.0000 </r>
       <r>   32.6095    0.0000 </r>
       <r>   36.9848    0.0000 </r>
       <r>   39.1761    0.0000 </r>
       <r>   39.4056    0.0000 </r>
       <r>   40.4448    0.0000 </r>
       <r>   43.1410    0.0000 </r>
       <r>   45.7584    0.0000 </r>
       <r>   45.9820    0.0000 </r>
       <r>   46.4274    0.0000 </r>
      </set>
      <set comment="kpoint 11">
       <r>    4.2599    1.0000 </r>
       <r>    4.9858    1.0000 </r>
       <r>    5.1869    1.0000 </r>
       <r>    6.1330    1.0000 </r>
       <r>    6.4558    1.0000 </r>
       <r>    6.7685    1.0000 </r>
       <r>    6.8100    1.0000 </r>
       <r>    7.8832    1.0000 </r>
       <r>    8.0525    1.0000 </r>
       <r>    8.2693    1.0000 </r>
       <r>    8.7208    1.0000 </r>
       <r>   14.9872    0.0000 </r>
       <r>   16.1248    0.0000 </r>
       <r>   17.6652    0.0000 </r>
       <r>   22.1678    0.0000 </r>
       <r>   23.9271    0.0000 </r>
       <r>   24.9547    0.0000 </r>
       <r>   29.7416    0.0000 </r>
       <r>   31.5736    0.0000 </r>
       <r>   31.6094    0.0000 </r>
       <r>   36.9665    0.0000 </r>
       <r>   39.5208    0.0000 </r>
       <r>   40.9714    0.0000 </r>
       <r>   42.1748    0.0000 </r>
       <r>   44.8802    0.0000 </r>
       <r>   45.9904    0.0000 </r>
       <r>   46.1871    0.0000 </r>
       <r>   49.1449    0.0000 </r>
      </set>
      <set comment="kpoint 12">
       <r>    4.6995    1.0000 </r>
       <r>    4.8398    1.0000 </r>
       <r>    5.0145    1.0000 </r>
       <r>    6.4124    1.0000 </r>
       <r>    6.4731    1.0000 </r>
       <r>    6.6600    1.0000 </r>
       <r>    6.9454    1.0000 </r>
       <r>    8.1885    1.0000 </r>
       <r>    8.2504    1.0000 </r>
       <r>    8.2787    1.0000 </r>
       <r>    9.9586    0.0000 </r>
       <r>   12.7169    0.0000 </r>
       <r>   17.9492    0.0000 </r>
       <r>   18.5714    0.0000 </r>
       <r>   21.4378    0.0000 </r>
       <r>   21.6494    0.0000 </r>
       <r>   22.7410    0.0000 </r>
       <r>   29.2997    0.0000 </r>
       <r>   31.0214    0.0000 </r>
       <r>   31.3301    0.0000 </r>
       <r>   36.8233    0.0000 </r>
       <r>   39.7022    0.0000 </r>
       <r>   42.6769    0.0000 </r>
       <r>   43.3294    0.0000 </r>
       <r>   45.4882    0.0000 </r>
       <r>   46.1474    0.0000 </r>
       <r>   46.1742    0.0000 </r>
       <r>   48.1325    0.0000 </r>
      </set>
      <set comment="kpoint 13">
       <r>    3.1436    1.0000 </r>
       <r>    5.2920    1.0000 </r>
       <r>    5.6329    1.0000 </r>
       <r>    5.7150    1.0000 </r>
       <r>    6.5024    1.0000 </r>
       <r>    6.6375    1.0000 </r>
       <r>    7.0117    1.0000 </r>
       <r>    7.2461    1.0000 </r>
       <r>    7.6755    1.0000 </r>
       <r>    8.0101    1.0000 </r>
       <r>    8.2156    1.0000 </r>
       <r>   13.9894    0.0000 </r>
       <r>   15.5944    0.0000 </r>
       <r>   21.0059    0.0000 </r>
       <r>   21.3025    0.0000 </r>
       <r>   28.3555    0.0000 </r>
       <r>   28.8643    0.0000 </r>
       <r>   29.8113    0.0000 </r>
       <r>   30.4833    0.0000 </r>
       <r>   35.0140    0.0000 </r>
       <r>   37.2999    0.0000 </r>
       <r>   37.3722    0.0000 </r>
       <r>   40.8987    0.0000 </r>
       <r>   42.1158    0.0000 </r>
       <r>   42.5528    0.0000 </r>
       <r>   43.6814    0.0000 </r>
       <r>   44.9911    0.0000 </r>
       <r>   45.8628    0.0000 </r>
      </set>
      <set comment="kpoint 14">
       <r>    4.1904    1.0000 </r>
       <r>    5.2831    1.0000 </r>
       <r>    5.3106    1.0000 </r>
       <r>    5.6985    1.0000 </r>
       <r>    6.3695    1.0000 </r>
       <r>    6.7655    1.0000 </r>
       <r>    6.8473    1.0000 </r>
       <r>    7.5122    1.0000 </r>
       <r>    8.0550    1.0000 </r>
       <r>    8.2137    1.0000 </r>
       <r>    8.7323    1.0000 </r>
       <r>   15.7412    0.0000 </r>
       <r>   16.0510    0.0000 </r>
       <r>   18.1938    0.0000 </r>
       <r>   20.0199    0.0000 </r>
       <r>   25.6488    0.0000 </r>
       <r>   26.8361    0.0000 </r>
       <r>   27.6536    0.0000 </r>
       <r>   29.2134    0.0000 </r>
       <r>   35.1404    0.0000 </r>
       <r>   38.7026    0.0000 </r>
       <r>   39.6870    0.0000 </r>
       <r>   41.5153    0.0000 </r>
       <r>   42.0425    0.0000 </r>
       <r>   44.2964    0.0000 </r>
       <r>   45.5674    0.0000 </r>
       <r>   45.8659    0.0000 </r>
       <r>   46.0171    0.0000 </r>
      </set>
      <set comment="kpoint 15">
       <r>    4.8530    1.0000 </r>
       <r>    5.1090    1.0000 </r>
       <r>    5.1118    1.0000 </r>
       <r>    5.9850    1.0000 </r>
       <r>    6.3325    1.0000 </r>
       <r>    6.6699    1.0000 </r>
       <r>    6.9416    1.0000 </r>
       <r>    7.8632    1.0000 </r>
       <r>    8.2114    1.0000 </r>
       <r>    8.2422    1.0000 </r>
       <r>    9.8461    0.0000 </r>
       <r>   14.3283    0.0000 </r>
       <r>   17.6562    0.0000 </r>
       <r>   18.1953    0.0000 </r>
       <r>   19.3019    0.0000 </r>
       <r>   23.0315    0.0000 </r>
       <r>   24.0304    0.0000 </r>
       <r>   27.0569    0.0000 </r>
       <r>   28.4942    0.0000 </r>
       <r>   34.8001    0.0000 </r>
       <r>   39.4587    0.0000 </r>
       <r>   41.9044    0.0000 </r>
       <r>   42.9784    0.0000 </r>
       <r>   43.0416    0.0000 </r>
       <r>   44.4130    0.0000 </r>
       <r>   45.8088    0.0000 </r>
       <r>   46.0826    0.0000 </r>
       <r>   48.1640    0.0000 </r>
      </set>
      <set comment="kpoint 16">
       <r>    5.0114    1.0000 </r>
       <r>    5.0273    1.0000 </r>
       <r>    5.0453    1.0000 </r>
       <r>    6.1871    1.0000 </r>
       <r>    6.3461    1.0000 </r>
       <r>    6.5783    1.0000 </r>
       <r>    7.0164    1.0000 </r>
       <r>    8.0992    1.0000 </r>
       <r>    8.2103    1.0000 </r>
       <r>    8.2233    1.0000 </r>
       <r>   11.1146    0.0000 </r>
       <r>   12.4862    0.0000 </r>
       <r>   18.7390    0.0000 </r>
       <r>   19.0221    0.0000 </r>
       <r>   19.3586    0.0000 </r>
       <r>   21.4319    0.0000 </r>
       <r>   22.5473    0.0000 </r>
       <r>   26.8586    0.0000 </r>
       <r>   28.2421    0.0000 </r>
       <r>   34.6688    0.0000 </r>
       <r>   39.5825    0.0000 </r>
       <r>   42.6442    0.0000 </r>
       <r>   42.8684    0.0000 </r>
       <r>   44.7604    0.0000 </r>
       <r>   45.5092    0.0000 </r>
       <r>   45.9769    0.0000 </r>
       <r>   46.0799    0.0000 </r>
       <r>   47.5264    0.0000 </r>
      </set>
      <set comment="kpoint 17">
       <r>    4.9671    1.0000 </r>
       <r>    5.1677    1.0000 </r>
       <r>    5.4549    1.0000 </r>
       <r>    5.5171    1.0000 </r>
       <r>    6.2787    1.0000 </r>
       <r>    6.6824    1.0000 </r>
       <r>    6.9473    1.0000 </r>
       <r>    7.6667    1.0000 </r>
       <r>    8.1767    1.0000 </r>
       <r>    8.2477    1.0000 </r>
       <r>    9.8389    0.0000 </r>
       <r>   16.0580    0.0000 </r>
       <r>   16.7355    0.0000 </r>
       <r>   17.5399    0.0000 </r>
       <r>   18.6634    0.0000 </r>
       <r>   24.6987    0.0000 </r>
       <r>   25.0897    0.0000 </r>
       <r>   25.6469    0.0000 </r>
       <r>   26.4522    0.0000 </r>
       <r>   38.1345    0.0000 </r>
       <r>   39.7131    0.0000 </r>
       <r>   40.6119    0.0000 </r>
       <r>   42.7646    0.0000 </r>
       <r>   44.6632    0.0000 </r>
       <r>   45.4498    0.0000 </r>
       <r>   45.5613    0.0000 </r>
       <r>   45.8995    0.0000 </r>
       <r>   46.4607    0.0000 </r>
      </set>
      <set comment="kpoint 18">
       <r>    5.1001    1.0000 </r>
       <r>    5.2391    1.0000 </r>
       <r>    5.3404    1.0000 </r>
       <r>    5.7948    1.0000 </r>
       <r>    6.2960    1.0000 </r>
       <r>    6.5118    1.0000 </r>
       <r>    7.0928    1.0000 </r>
       <r>    7.9032    1.0000 </r>
       <r>    8.1549    1.0000 </r>
       <r>    8.2004    1.0000 </r>
       <r>   11.4427    0.0000 </r>
       <r>   13.8606    0.0000 </r>
       <r>   16.1190    0.0000 </r>
       <r>   19.4695    0.0000 </r>
       <r>   19.7762    0.0000 </r>
       <r>   22.3983    0.0000 </r>
       <r>   23.5021    0.0000 </r>
       <r>   24.6077    0.0000 </r>
       <r>   25.7047    0.0000 </r>
       <r>   38.4927    0.0000 </r>
       <r>   42.1645    0.0000 </r>
       <r>   42.3024    0.0000 </r>
       <r>   44.1827    0.0000 </r>
       <r>   45.0539    0.0000 </r>
       <r>   45.0835    0.0000 </r>
       <r>   45.7374    0.0000 </r>
       <r>   45.9112    0.0000 </r>
       <r>   47.5340    0.0000 </r>
      </set>
      <set comment="kpoint 19">
       <r>    5.1051    1.0000 </r>
       <r>    5.4173    1.0000 </r>
       <r>    5.4173    1.0000 </r>
       <r>    5.6967    1.0000 </r>
       <r>    6.3642    1.0000 </r>
       <r>    6.3642    1.0000 </r>
       <r>    7.1781    1.0000 </r>
       <r>    8.0283    1.0000 </r>
       <r>    8.0283    1.0000 </r>
       <r>    8.1323    1.0000 </r>
       <r>   13.1827    0.0000 </r>
       <r>   13.8277    0.0000 </r>
       <r>   13.8277    0.0000 </r>
       <r>   20.6662    0.0000 </r>
       <r>   21.3464    0.0000 </r>
       <r>   21.3464    0.0000 </r>
       <r>   23.3603    0.0000 </r>
       <r>   23.8078    0.0000 </r>
       <r>   23.8078    0.0000 </r>
       <r>   41.1860    0.0000 </r>
       <r>   42.9857    0.0000 </r>
       <r>   42.9857    0.0000 </r>
       <r>   44.7262    0.0000 </r>
       <r>   44.7262    0.0000 </r>
       <r>   45.2131    0.0000 </r>
       <r>   45.6539    0.0000 </r>
       <r>   45.6539    0.0000 </r>
       <r>   46.4879    0.0000 </r>
      </set>
      <set comment="kpoint 20">
       <r>    0.8290    1.0000 </r>
       <r>    4.2956    1.0000 </r>
       <r>    6.5390    1.0000 </r>
       <r>    6.5461    1.0000 </r>
       <r>    6.5461    1.0000 </r>
       <r>    6.8172    1.0000 </r>
       <r>    6.8172    1.0000 </r>
       <r>    7.2331    1.0000 </r>
       <r>    7.2331    1.0000 </r>
       <r>    8.1085    1.0000 </r>
       <r>    8.1085    1.0000 </r>
       <r>    8.4781    1.0000 </r>
       <r>   15.6749    0.0000 </r>
       <r>   30.2825    0.0000 </r>
       <r>   32.1848    0.0000 </r>
       <r>   32.1848    0.0000 </r>
       <r>   32.2486    0.0000 </r>
       <r>   32.8876    0.0000 </r>
       <r>   33.5428    0.0000 </r>
       <r>   33.5428    0.0000 </r>
       <r>   37.8519    0.0000 </r>
       <r>   37.8519    0.0000 </r>
       <r>   39.1892    0.0000 </r>
       <r>   39.8144    0.0000 </r>
       <r>   39.8144    0.0000 </r>
       <r>   39.8775    0.0000 </r>
       <r>   42.3673    0.0000 </r>
       <r>   43.5881    0.0000 </r>
      </set>
      <set comment="kpoint 21">
       <r>    1.0545    1.0000 </r>
       <r>    4.4349    1.0000 </r>
       <r>    6.3801    1.0000 </r>
       <r>    6.6337    1.0000 </r>
       <r>    6.6479    1.0000 </r>
       <r>    6.7290    1.0000 </r>
       <r>    6.9000    1.0000 </r>
       <r>    7.1456    1.0000 </r>
       <r>    7.1898    1.0000 </r>
       <r>    7.4278    1.0000 </r>
       <r>    8.1306    1.0000 </r>
       <r>    9.4297    0.0000 </r>
       <r>   15.7729    0.0000 </r>
       <r>   28.2434    0.0000 </r>
       <r>   30.2468    0.0000 </r>
       <r>   30.4481    0.0000 </r>
       <r>   32.2871    0.0000 </r>
       <r>   33.2611    0.0000 </r>
       <r>   34.9420    0.0000 </r>
       <r>   35.6252    0.0000 </r>
       <r>   36.9398    0.0000 </r>
       <r>   37.1588    0.0000 </r>
       <r>   37.5939    0.0000 </r>
       <r>   39.3053    0.0000 </r>
       <r>   40.7715    0.0000 </r>
       <r>   41.7451    0.0000 </r>
       <r>   42.0173    0.0000 </r>
       <r>   42.6851    0.0000 </r>
      </set>
      <set comment="kpoint 22">
       <r>    1.7069    1.0000 </r>
       <r>    4.7835    1.0000 </r>
       <r>    6.1632    1.0000 </r>
       <r>    6.2972    1.0000 </r>
       <r>    6.6214    1.0000 </r>
       <r>    6.8175    1.0000 </r>
       <r>    6.9466    1.0000 </r>
       <r>    7.0892    1.0000 </r>
       <r>    7.1928    1.0000 </r>
       <r>    7.2694    1.0000 </r>
       <r>    8.1776    1.0000 </r>
       <r>   10.6690    0.0000 </r>
       <r>   16.0979    0.0000 </r>
       <r>   24.4883    0.0000 </r>
       <r>   28.0286    0.0000 </r>
       <r>   29.3205    0.0000 </r>
       <r>   30.8846    0.0000 </r>
       <r>   32.5674    0.0000 </r>
       <r>   34.4091    0.0000 </r>
       <r>   35.2821    0.0000 </r>
       <r>   36.0375    0.0000 </r>
       <r>   37.0248    0.0000 </r>
       <r>   38.3966    0.0000 </r>
       <r>   39.9567    0.0000 </r>
       <r>   40.8107    0.0000 </r>
       <r>   42.4736    0.0000 </r>
       <r>   43.5338    0.0000 </r>
       <r>   44.9735    0.0000 </r>
      </set>
      <set comment="kpoint 23">
       <r>    2.6917    1.0000 </r>
       <r>    5.0727    1.0000 </r>
       <r>    5.7303    1.0000 </r>
       <r>    6.0386    1.0000 </r>
       <r>    6.5095    1.0000 </r>
       <r>    6.7714    1.0000 </r>
       <r>    6.9761    1.0000 </r>
       <r>    7.3933    1.0000 </r>
       <r>    7.4385    1.0000 </r>
       <r>    7.5064    1.0000 </r>
       <r>    8.2222    1.0000 </r>
       <r>   11.9830    0.0000 </r>
       <r>   16.7074    0.0000 </r>
       <r>   20.9043    0.0000 </r>
       <r>   26.1126    0.0000 </r>
       <r>   26.8125    0.0000 </r>
       <r>   29.2188    0.0000 </r>
       <r>   31.9243    0.0000 </r>
       <r>   32.3079    0.0000 </r>
       <r>   33.8442    0.0000 </r>
       <r>   35.6062    0.0000 </r>
       <r>   37.8698    0.0000 </r>
       <r>   37.9318    0.0000 </r>
       <r>   42.2763    0.0000 </r>
       <r>   42.4619    0.0000 </r>
       <r>   44.9885    0.0000 </r>
       <r>   45.8783    0.0000 </r>
       <r>   45.9731    0.0000 </r>
      </set>
      <set comment="kpoint 24">
       <r>    3.7455    1.0000 </r>
       <r>    5.0151    1.0000 </r>
       <r>    5.3579    1.0000 </r>
       <r>    6.0284    1.0000 </r>
       <r>    6.6347    1.0000 </r>
       <r>    6.6497    1.0000 </r>
       <r>    7.0217    1.0000 </r>
       <r>    7.8045    1.0000 </r>
       <r>    7.8658    1.0000 </r>
       <r>    7.9503    1.0000 </r>
       <r>    8.2570    1.0000 </r>
       <r>   13.2670    0.0000 </r>
       <r>   17.0550    0.0000 </r>
       <r>   18.3823    0.0000 </r>
       <r>   23.8793    0.0000 </r>
       <r>   24.6037    0.0000 </r>
       <r>   27.3456    0.0000 </r>
       <r>   30.3056    0.0000 </r>
       <r>   31.3601    0.0000 </r>
       <r>   32.5760    0.0000 </r>
       <r>   36.5294    0.0000 </r>
       <r>   37.1036    0.0000 </r>
       <r>   38.8219    0.0000 </r>
       <r>   43.9111    0.0000 </r>
       <r>   45.4839    0.0000 </r>
       <r>   45.6249    0.0000 </r>
       <r>   46.1179    0.0000 </r>
       <r>   46.4445    0.0000 </r>
      </set>
      <set comment="kpoint 25">
       <r>    4.3693    1.0000 </r>
       <r>    4.8251    1.0000 </r>
       <r>    5.2388    1.0000 </r>
       <r>    6.0398    1.0000 </r>
       <r>    6.5327    1.0000 </r>
       <r>    6.8796    1.0000 </r>
       <r>    7.2353    1.0000 </r>
       <r>    8.0983    1.0000 </r>
       <r>    8.1608    1.0000 </r>
       <r>    8.2990    1.0000 </r>
       <r>    8.9451    0.9998 </r>
       <r>   13.3055    0.0000 </r>
       <r>   16.1673    0.0000 </r>
       <r>   18.8556    0.0000 </r>
       <r>   21.7605    0.0000 </r>
       <r>   23.6197    0.0000 </r>
       <r>   24.8309    0.0000 </r>
       <r>   29.7767    0.0000 </r>
       <r>   30.7200    0.0000 </r>
       <r>   31.7026    0.0000 </r>
       <r>   36.6383    0.0000 </r>
       <r>   37.6907    0.0000 </r>
       <r>   39.5126    0.0000 </r>
       <r>   43.5978    0.0000 </r>
       <r>   45.6334    0.0000 </r>
       <r>   46.0451    0.0000 </r>
       <r>   47.1066    0.0000 </r>
       <r>   48.8363    0.0000 </r>
      </set>
      <set comment="kpoint 26">
       <r>    4.5056    1.0000 </r>
       <r>    4.7307    1.0000 </r>
       <r>    5.2337    1.0000 </r>
       <r>    6.0589    1.0000 </r>
       <r>    6.4959    1.0000 </r>
       <r>    6.9508    1.0000 </r>
       <r>    7.3922    1.0000 </r>
       <r>    8.1760    1.0000 </r>
       <r>    8.2738    1.0000 </r>
       <r>    8.3482    1.0000 </r>
       <r>   10.0729    0.0000 </r>
       <r>   11.8954    0.0000 </r>
       <r>   17.5219    0.0000 </r>
       <r>   17.8335    0.0000 </r>
       <r>   22.2026    0.0000 </r>
       <r>   22.9053    0.0000 </r>
       <r>   23.2748    0.0000 </r>
       <r>   29.6531    0.0000 </r>
       <r>   30.4940    0.0000 </r>
       <r>   31.3910    0.0000 </r>
       <r>   36.4907    0.0000 </r>
       <r>   38.2694    0.0000 </r>
       <r>   39.8581    0.0000 </r>
       <r>   42.8201    0.0000 </r>
       <r>   45.9312    0.0000 </r>
       <r>   46.0435    0.0000 </r>
       <r>   47.5356    0.0000 </r>
       <r>   50.2222    0.0000 </r>
      </set>
      <set comment="kpoint 27">
       <r>    1.4943    1.0000 </r>
       <r>    4.6843    1.0000 </r>
       <r>    6.2093    1.0000 </r>
       <r>    6.4543    1.0000 </r>
       <r>    6.6835    1.0000 </r>
       <r>    6.7731    1.0000 </r>
       <r>    6.8985    1.0000 </r>
       <r>    7.0268    1.0000 </r>
       <r>    7.1964    1.0000 </r>
       <r>    7.2876    1.0000 </r>
       <r>    8.1588    1.0000 </r>
       <r>   10.3292    0.0000 </r>
       <r>   15.9860    0.0000 </r>
       <r>   26.2401    0.0000 </r>
       <r>   26.7678    0.0000 </r>
       <r>   31.4997    0.0000 </r>
       <r>   31.6452    0.0000 </r>
       <r>   32.5802    0.0000 </r>
       <r>   34.1002    0.0000 </r>
       <r>   34.2791    0.0000 </r>
       <r>   37.1525    0.0000 </r>
       <r>   37.4209    0.0000 </r>
       <r>   39.1688    0.0000 </r>
       <r>   39.3417    0.0000 </r>
       <r>   40.1052    0.0000 </r>
       <r>   41.8314    0.0000 </r>
       <r>   42.0454    0.0000 </r>
       <r>   45.2922    0.0000 </r>
      </set>
      <set comment="kpoint 28">
       <r>    2.3213    1.0000 </r>
       <r>    5.0471    1.0000 </r>
       <r>    5.9248    1.0000 </r>
       <r>    5.9950    1.0000 </r>
       <r>    6.5674    1.0000 </r>
       <r>    6.7407    1.0000 </r>
       <r>    6.9769    1.0000 </r>
       <r>    7.1727    1.0000 </r>
       <r>    7.3700    1.0000 </r>
       <r>    7.4811    1.0000 </r>
       <r>    8.1958    1.0000 </r>
       <r>   11.5239    0.0000 </r>
       <r>   16.4705    0.0000 </r>
       <r>   22.7467    0.0000 </r>
       <r>   24.8665    0.0000 </r>
       <r>   28.6477    0.0000 </r>
       <r>   30.7320    0.0000 </r>
       <r>   31.5647    0.0000 </r>
       <r>   33.5566    0.0000 </r>
       <r>   34.3408    0.0000 </r>
       <r>   35.1877    0.0000 </r>
       <r>   36.9957    0.0000 </r>
       <r>   39.6081    0.0000 </r>
       <r>   40.8425    0.0000 </r>
       <r>   42.6039    0.0000 </r>
       <r>   42.9704    0.0000 </r>
       <r>   44.3260    0.0000 </r>
       <r>   45.4699    0.0000 </r>
      </set>
      <set comment="kpoint 29">
       <r>    3.3784    1.0000 </r>
       <r>    5.1753    1.0000 </r>
       <r>    5.4821    1.0000 </r>
       <r>    5.9360    1.0000 </r>
       <r>    6.4865    1.0000 </r>
       <r>    6.7206    1.0000 </r>
       <r>    6.9260    1.0000 </r>
       <r>    7.4576    1.0000 </r>
       <r>    7.7315    1.0000 </r>
       <r>    7.9195    1.0000 </r>
       <r>    8.2542    1.0000 </r>
       <r>   12.8235    0.0000 </r>
       <r>   17.2198    0.0000 </r>
       <r>   19.4153    0.0000 </r>
       <r>   23.4291    0.0000 </r>
       <r>   25.5195    0.0000 </r>
       <r>   29.1720    0.0000 </r>
       <r>   29.6567    0.0000 </r>
       <r>   32.3358    0.0000 </r>
       <r>   33.5054    0.0000 </r>
       <r>   35.3532    0.0000 </r>
       <r>   37.8513    0.0000 </r>
       <r>   40.4292    0.0000 </r>
       <r>   41.7334    0.0000 </r>
       <r>   44.3238    0.0000 </r>
       <r>   45.4592    0.0000 </r>
       <r>   45.7199    0.0000 </r>
       <r>   46.1455    0.0000 </r>
      </set>
      <set comment="kpoint 30">
       <r>    4.2612    1.0000 </r>
       <r>    5.0052    1.0000 </r>
       <r>    5.2682    1.0000 </r>
       <r>    5.9666    1.0000 </r>
       <r>    6.5143    1.0000 </r>
       <r>    6.8043    1.0000 </r>
       <r>    6.9775    1.0000 </r>
       <r>    7.8582    1.0000 </r>
       <r>    8.0832    1.0000 </r>
       <r>    8.1761    1.0000 </r>
       <r>    8.7228    1.0000 </r>
       <r>   13.8636    0.0000 </r>
       <r>   16.3999    0.0000 </r>
       <r>   18.7279    0.0000 </r>
       <r>   22.2317    0.0000 </r>
       <r>   22.9011    0.0000 </r>
       <r>   26.3889    0.0000 </r>
       <r>   28.8168    0.0000 </r>
       <r>   31.6768    0.0000 </r>
       <r>   32.4206    0.0000 </r>
       <r>   36.0561    0.0000 </r>
       <r>   38.5062    0.0000 </r>
       <r>   40.8406    0.0000 </r>
       <r>   44.0550    0.0000 </r>
       <r>   44.7341    0.0000 </r>
       <r>   45.5076    0.0000 </r>
       <r>   46.1104    0.0000 </r>
       <r>   47.8480    0.0000 </r>
      </set>
      <set comment="kpoint 31">
       <r>    4.5681    1.0000 </r>
       <r>    4.8466    1.0000 </r>
       <r>    5.2657    1.0000 </r>
       <r>    6.0142    1.0000 </r>
       <r>    6.4456    1.0000 </r>
       <r>    6.9669    1.0000 </r>
       <r>    7.1514    1.0000 </r>
       <r>    8.1396    1.0000 </r>
       <r>    8.2314    1.0000 </r>
       <r>    8.2656    1.0000 </r>
       <r>    9.9390    0.0000 </r>
       <r>   12.6144    0.0000 </r>
       <r>   16.9316    0.0000 </r>
       <r>   18.6942    0.0000 </r>
       <r>   21.5424    0.0000 </r>
       <r>   22.0907    0.0000 </r>
       <r>   23.9060    0.0000 </r>
       <r>   28.3736    0.0000 </r>
       <r>   31.3985    0.0000 </r>
       <r>   31.8291    0.0000 </r>
       <r>   36.3185    0.0000 </r>
       <r>   39.5677    0.0000 </r>
       <r>   40.6635    0.0000 </r>
       <r>   43.3421    0.0000 </r>
       <r>   45.8408    0.0000 </r>
       <r>   46.0028    0.0000 </r>
       <r>   47.0356    0.0000 </r>
       <r>   48.8167    0.0000 </r>
      </set>
      <set comment="kpoint 32">
       <r>    3.2471    1.0000 </r>
       <r>    5.3402    1.0000 </r>
       <r>    5.5640    1.0000 </r>
       <r>    5.7400    1.0000 </r>
       <r>    6.4945    1.0000 </r>
       <r>    6.6440    1.0000 </r>
       <r>    6.9410    1.0000 </r>
       <r>    7.2836    1.0000 </r>
       <r>    7.7397    1.0000 </r>
       <r>    7.9176    1.0000 </r>
       <r>    8.2525    1.0000 </r>
       <r>   12.6689    0.0000 </r>
       <r>   17.1744    0.0000 </r>
       <r>   21.1446    0.0000 </r>
       <r>   21.4603    0.0000 </r>
       <r>   27.1997    0.0000 </r>
       <r>   27.7223    0.0000 </r>
       <r>   31.1770    0.0000 </r>
       <r>   31.6229    0.0000 </r>
       <r>   34.8268    0.0000 </r>
       <r>   35.7612    0.0000 </r>
       <r>   37.2903    0.0000 </r>
       <r>   41.3666    0.0000 </r>
       <r>   41.4017    0.0000 </r>
       <r>   43.2865    0.0000 </r>
       <r>   44.9807    0.0000 </r>
       <r>   45.4389    0.0000 </r>
       <r>   45.8271    0.0000 </r>
      </set>
      <set comment="kpoint 33">
       <r>    4.2375    1.0000 </r>
       <r>    5.2669    1.0000 </r>
       <r>    5.3451    1.0000 </r>
       <r>    5.7355    1.0000 </r>
       <r>    6.4087    1.0000 </r>
       <r>    6.7757    1.0000 </r>
       <r>    6.7989    1.0000 </r>
       <r>    7.5252    1.0000 </r>
       <r>    8.0992    1.0000 </r>
       <r>    8.1014    1.0000 </r>
       <r>    8.7827    1.0000 </r>
       <r>   13.9635    0.0000 </r>
       <r>   17.6589    0.0000 </r>
       <r>   18.6883    0.0000 </r>
       <r>   20.1850    0.0000 </r>
       <r>   24.4142    0.0000 </r>
       <r>   26.4846    0.0000 </r>
       <r>   28.2973    0.0000 </r>
       <r>   30.5305    0.0000 </r>
       <r>   35.1527    0.0000 </r>
       <r>   36.7944    0.0000 </r>
       <r>   39.4143    0.0000 </r>
       <r>   41.1907    0.0000 </r>
       <r>   43.3032    0.0000 </r>
       <r>   44.6873    0.0000 </r>
       <r>   45.4526    0.0000 </r>
       <r>   45.6810    0.0000 </r>
       <r>   45.9626    0.0000 </r>
      </set>
      <set comment="kpoint 34">
       <r>    4.7609    1.0000 </r>
       <r>    5.1455    1.0000 </r>
       <r>    5.2683    1.0000 </r>
       <r>    5.8512    1.0000 </r>
       <r>    6.3843    1.0000 </r>
       <r>    6.7490    1.0000 </r>
       <r>    6.9725    1.0000 </r>
       <r>    7.8568    1.0000 </r>
       <r>    8.1090    1.0000 </r>
       <r>    8.2752    1.0000 </r>
       <r>    9.8953    0.0000 </r>
       <r>   14.0961    0.0000 </r>
       <r>   16.5847    0.0000 </r>
       <r>   19.2582    0.0000 </r>
       <r>   19.5959    0.0000 </r>
       <r>   22.2185    0.0000 </r>
       <r>   25.4159    0.0000 </r>
       <r>   25.9557    0.0000 </r>
       <r>   29.8756    0.0000 </r>
       <r>   34.8579    0.0000 </r>
       <r>   37.9374    0.0000 </r>
       <r>   40.2117    0.0000 </r>
       <r>   43.5352    0.0000 </r>
       <r>   43.8144    0.0000 </r>
       <r>   44.4166    0.0000 </r>
       <r>   45.6104    0.0000 </r>
       <r>   45.8839    0.0000 </r>
       <r>   47.3622    0.0000 </r>
      </set>
      <set comment="kpoint 35">
       <r>    4.8070    1.0000 </r>
       <r>    5.0674    1.0000 </r>
       <r>    5.3503    1.0000 </r>
       <r>    5.9196    1.0000 </r>
       <r>    6.3274    1.0000 </r>
       <r>    6.8165    1.0000 </r>
       <r>    7.0507    1.0000 </r>
       <r>    8.0950    1.0000 </r>
       <r>    8.0971    1.0000 </r>
       <r>    8.2550    1.0000 </r>
       <r>   11.1809    0.0000 </r>
       <r>   12.4781    0.0000 </r>
       <r>   18.0668    0.0000 </r>
       <r>   18.3949    0.0000 </r>
       <r>   19.1674    0.0000 </r>
       <r>   22.6120    0.0000 </r>
       <r>   23.5463    0.0000 </r>
       <r>   25.6873    0.0000 </r>
       <r>   29.6458    0.0000 </r>
       <r>   34.7315    0.0000 </r>
       <r>   38.4857    0.0000 </r>
       <r>   40.2780    0.0000 </r>
       <r>   43.1047    0.0000 </r>
       <r>   44.4771    0.0000 </r>
       <r>   45.8008    0.0000 </r>
       <r>   45.8760    0.0000 </r>
       <r>   46.0693    0.0000 </r>
       <r>   48.5450    0.0000 </r>
      </set>
      <set comment="kpoint 36">
       <r>    4.9737    1.0000 </r>
       <r>    5.1373    1.0000 </r>
       <r>    5.5140    1.0000 </r>
       <r>    5.5528    1.0000 </r>
       <r>    6.3691    1.0000 </r>
       <r>    6.6083    1.0000 </r>
       <r>    6.9420    1.0000 </r>
       <r>    7.6832    1.0000 </r>
       <r>    8.0690    1.0000 </r>
       <r>    8.2820    1.0000 </r>
       <r>    9.9086    0.0000 </r>
       <r>   15.1360    0.0000 </r>
       <r>   16.8890    0.0000 </r>
       <r>   17.4886    0.0000 </r>
       <r>   19.8407    0.0000 </r>
       <r>   23.5366    0.0000 </r>
       <r>   23.7777    0.0000 </r>
       <r>   27.3550    0.0000 </r>
       <r>   27.7902    0.0000 </r>
       <r>   37.6783    0.0000 </r>
       <r>   38.9706    0.0000 </r>
       <r>   39.7199    0.0000 </r>
       <r>   42.7023    0.0000 </r>
       <r>   43.3612    0.0000 </r>
       <r>   45.5960    0.0000 </r>
       <r>   45.6656    0.0000 </r>
       <r>   45.9265    0.0000 </r>
       <r>   46.8350    0.0000 </r>
      </set>
      <set comment="kpoint 37">
       <r>    5.0553    1.0000 </r>
       <r>    5.3198    1.0000 </r>
       <r>    5.4090    1.0000 </r>
       <r>    5.7276    1.0000 </r>
       <r>    6.3252    1.0000 </r>
       <r>    6.5118    1.0000 </r>
       <r>    7.0944    1.0000 </r>
       <r>    7.9143    1.0000 </r>
       <r>    8.0418    1.0000 </r>
       <r>    8.2245    1.0000 </r>
       <r>   11.5471    0.0000 </r>
       <r>   13.8965    0.0000 </r>
       <r>   16.1685    0.0000 </r>
       <r>   18.2472    0.0000 </r>
       <r>   20.0566    0.0000 </r>
       <r>   22.1981    0.0000 </r>
       <r>   23.5913    0.0000 </r>
       <r>   25.0366    0.0000 </r>
       <r>   27.1979    0.0000 </r>
       <r>   38.3962    0.0000 </r>
       <r>   40.0949    0.0000 </r>
       <r>   41.5167    0.0000 </r>
       <r>   42.9251    0.0000 </r>
       <r>   44.4311    0.0000 </r>
       <r>   45.2999    0.0000 </r>
       <r>   45.7230    0.0000 </r>
       <r>   46.4993    0.0000 </r>
       <r>   47.5752    0.0000 </r>
      </set>
      <set comment="kpoint 38">
       <r>    5.1536    1.0000 </r>
       <r>    5.4285    1.0000 </r>
       <r>    5.4285    1.0000 </r>
       <r>    5.7076    1.0000 </r>
       <r>    6.3527    1.0000 </r>
       <r>    6.3527    1.0000 </r>
       <r>    7.1633    1.0000 </r>
       <r>    8.0131    1.0000 </r>
       <r>    8.0489    1.0000 </r>
       <r>    8.0489    1.0000 </r>
       <r>   13.3947    0.0000 </r>
       <r>   13.8810    0.0000 </r>
       <r>   13.8810    0.0000 </r>
       <r>   19.7866    0.0000 </r>
       <r>   20.3894    0.0000 </r>
       <r>   20.3894    0.0000 </r>
       <r>   24.4576    0.0000 </r>
       <r>   25.0425    0.0000 </r>
       <r>   25.0425    0.0000 </r>
       <r>   40.3270    0.0000 </r>
       <r>   41.9431    0.0000 </r>
       <r>   41.9431    0.0000 </r>
       <r>   43.2765    0.0000 </r>
       <r>   43.7931    0.0000 </r>
       <r>   43.7931    0.0000 </r>
       <r>   45.9935    0.0000 </r>
       <r>   45.9935    0.0000 </r>
       <r>   48.1326    0.0000 </r>
      </set>
      <set comment="kpoint 39">
       <r>    1.2645    1.0000 </r>
       <r>    4.1245    1.0000 </r>
       <r>    6.4474    1.0000 </r>
       <r>    6.4904    1.0000 </r>
       <r>    6.4904    1.0000 </r>
       <r>    6.7226    1.0000 </r>
       <r>    6.7226    1.0000 </r>
       <r>    7.3603    1.0000 </r>
       <r>    7.4271    1.0000 </r>
       <r>    7.4271    1.0000 </r>
       <r>    8.0733    1.0000 </r>
       <r>    8.0733    1.0000 </r>
       <r>   17.7695    0.0000 </r>
       <r>   29.2026    0.0000 </r>
       <r>   30.5572    0.0000 </r>
       <r>   32.2422    0.0000 </r>
       <r>   32.5920    0.0000 </r>
       <r>   32.5920    0.0000 </r>
       <r>   33.6905    0.0000 </r>
       <r>   33.6905    0.0000 </r>
       <r>   37.0098    0.0000 </r>
       <r>   37.0098    0.0000 </r>
       <r>   38.1523    0.0000 </r>
       <r>   38.1523    0.0000 </r>
       <r>   39.7772    0.0000 </r>
       <r>   40.4000    0.0000 </r>
       <r>   44.7745    0.0000 </r>
       <r>   45.2407    0.0000 </r>
      </set>
      <set comment="kpoint 40">
       <r>    1.4838    1.0000 </r>
       <r>    4.2853    1.0000 </r>
       <r>    6.3874    1.0000 </r>
       <r>    6.4700    1.0000 </r>
       <r>    6.5175    1.0000 </r>
       <r>    6.5696    1.0000 </r>
       <r>    6.8042    1.0000 </r>
       <r>    7.0529    1.0000 </r>
       <r>    7.3992    1.0000 </r>
       <r>    7.4385    1.0000 </r>
       <r>    8.0862    1.0000 </r>
       <r>    8.6302    1.0000 </r>
       <r>   17.9108    0.0000 </r>
       <r>   28.5196    0.0000 </r>
       <r>   29.4066    0.0000 </r>
       <r>   30.6128    0.0000 </r>
       <r>   30.6853    0.0000 </r>
       <r>   32.2820    0.0000 </r>
       <r>   34.0190    0.0000 </r>
       <r>   34.8499    0.0000 </r>
       <r>   36.5420    0.0000 </r>
       <r>   37.6142    0.0000 </r>
       <r>   37.8992    0.0000 </r>
       <r>   39.7885    0.0000 </r>
       <r>   40.4266    0.0000 </r>
       <r>   42.4975    0.0000 </r>
       <r>   43.3969    0.0000 </r>
       <r>   43.8570    0.0000 </r>
      </set>
      <set comment="kpoint 41">
       <r>    2.1123    1.0000 </r>
       <r>    4.6992    1.0000 </r>
       <r>    6.0098    1.0000 </r>
       <r>    6.2136    1.0000 </r>
       <r>    6.4396    1.0000 </r>
       <r>    6.7505    1.0000 </r>
       <r>    6.8644    1.0000 </r>
       <r>    7.0298    1.0000 </r>
       <r>    7.3783    1.0000 </r>
       <r>    7.4927    1.0000 </r>
       <r>    8.1130    1.0000 </r>
       <r>    9.5157    0.0000 </r>
       <r>   18.3460    0.0000 </r>
       <r>   24.8667    0.0000 </r>
       <r>   28.3832    0.0000 </r>
       <r>   28.5354    0.0000 </r>
       <r>   30.0658    0.0000 </r>
       <r>   30.6131    0.0000 </r>
       <r>   33.2101    0.0000 </r>
       <r>   33.4827    0.0000 </r>
       <r>   37.3928    0.0000 </r>
       <r>   38.5627    0.0000 </r>
       <r>   38.8087    0.0000 </r>
       <r>   41.1082    0.0000 </r>
       <r>   41.8794    0.0000 </r>
       <r>   42.7567    0.0000 </r>
       <r>   44.0895    0.0000 </r>
       <r>   45.1746    0.0000 </r>
      </set>
      <set comment="kpoint 42">
       <r>    3.0306    1.0000 </r>
       <r>    5.0652    1.0000 </r>
       <r>    5.5738    1.0000 </r>
       <r>    6.0960    1.0000 </r>
       <r>    6.3748    1.0000 </r>
       <r>    6.8292    1.0000 </r>
       <r>    6.9213    1.0000 </r>
       <r>    7.3619    1.0000 </r>
       <r>    7.5392    1.0000 </r>
       <r>    7.6235    1.0000 </r>
       <r>    8.1417    1.0000 </r>
       <r>   10.4903    0.0000 </r>
       <r>   19.0508    0.0000 </r>
       <r>   21.3174    0.0000 </r>
       <r>   25.3647    0.0000 </r>
       <r>   26.6776    0.0000 </r>
       <r>   29.6710    0.0000 </r>
       <r>   30.4603    0.0000 </r>
       <r>   31.9718    0.0000 </r>
       <r>   32.3126    0.0000 </r>
       <r>   34.9500    0.0000 </r>
       <r>   39.3757    0.0000 </r>
       <r>   39.8116    0.0000 </r>
       <r>   43.1373    0.0000 </r>
       <r>   43.7383    0.0000 </r>
       <r>   44.9478    0.0000 </r>
       <r>   45.4211    0.0000 </r>
       <r>   45.4892    0.0000 </r>
      </set>
      <set comment="kpoint 43">
       <r>    3.9130    1.0000 </r>
       <r>    4.9985    1.0000 </r>
       <r>    5.3916    1.0000 </r>
       <r>    5.9451    1.0000 </r>
       <r>    6.6492    1.0000 </r>
       <r>    6.7671    1.0000 </r>
       <r>    7.3457    1.0000 </r>
       <r>    7.7143    1.0000 </r>
       <r>    7.8539    1.0000 </r>
       <r>    7.8943    1.0000 </r>
       <r>    8.1865    1.0000 </r>
       <r>   11.5469    0.0000 </r>
       <r>   17.9629    0.0000 </r>
       <r>   19.9943    0.0000 </r>
       <r>   22.6483    0.0000 </r>
       <r>   25.2164    0.0000 </r>
       <r>   28.6182    0.0000 </r>
       <r>   30.3662    0.0000 </r>
       <r>   30.7269    0.0000 </r>
       <r>   31.0357    0.0000 </r>
       <r>   34.2801    0.0000 </r>
       <r>   39.2419    0.0000 </r>
       <r>   40.0256    0.0000 </r>
       <r>   43.0489    0.0000 </r>
       <r>   45.5017    0.0000 </r>
       <r>   45.8523    0.0000 </r>
       <r>   46.0468    0.0000 </r>
       <r>   46.9121    0.0000 </r>
      </set>
      <set comment="kpoint 44">
       <r>    4.3117    1.0000 </r>
       <r>    4.8335    1.0000 </r>
       <r>    5.4464    1.0000 </r>
       <r>    5.7521    1.0000 </r>
       <r>    6.6956    1.0000 </r>
       <r>    6.9447    1.0000 </r>
       <r>    7.9139    1.0000 </r>
       <r>    7.9179    1.0000 </r>
       <r>    8.1463    1.0000 </r>
       <r>    8.2788    1.0000 </r>
       <r>    8.7562    1.0000 </r>
       <r>   12.2600    0.0000 </r>
       <r>   15.9144    0.0000 </r>
       <r>   18.7036    0.0000 </r>
       <r>   22.6680    0.0000 </r>
       <r>   24.2657    0.0000 </r>
       <r>   26.6945    0.0000 </r>
       <r>   29.8989    0.0000 </r>
       <r>   29.9576    0.0000 </r>
       <r>   30.2819    0.0000 </r>
       <r>   35.3862    0.0000 </r>
       <r>   38.7848    0.0000 </r>
       <r>   39.2667    0.0000 </r>
       <r>   41.7125    0.0000 </r>
       <r>   45.9274    0.0000 </r>
       <r>   46.0896    0.0000 </r>
       <r>   47.9593    0.0000 </r>
       <r>   49.2445    0.0000 </r>
      </set>
      <set comment="kpoint 45">
       <r>    4.3695    1.0000 </r>
       <r>    4.7695    1.0000 </r>
       <r>    5.5683    1.0000 </r>
       <r>    5.6112    1.0000 </r>
       <r>    6.6675    1.0000 </r>
       <r>    7.0394    1.0000 </r>
       <r>    7.9585    1.0000 </r>
       <r>    8.0698    1.0000 </r>
       <r>    8.2679    1.0000 </r>
       <r>    8.3371    1.0000 </r>
       <r>    9.8965    0.0000 </r>
       <r>   11.6620    0.0000 </r>
       <r>   16.5290    0.0000 </r>
       <r>   16.6629    0.0000 </r>
       <r>   23.9332    0.0000 </r>
       <r>   24.2031    0.0000 </r>
       <r>   24.7844    0.0000 </r>
       <r>   29.6072    0.0000 </r>
       <r>   29.8110    0.0000 </r>
       <r>   30.0885    0.0000 </r>
       <r>   36.6843    0.0000 </r>
       <r>   37.8237    0.0000 </r>
       <r>   38.6279    0.0000 </r>
       <r>   41.5737    0.0000 </r>
       <r>   45.9344    0.0000 </r>
       <r>   46.2209    0.0000 </r>
       <r>   48.2732    0.0000 </r>
       <r>   50.8693    0.0000 </r>
      </set>
      <set comment="kpoint 46">
       <r>    1.9088    1.0000 </r>
       <r>    4.5786    1.0000 </r>
       <r>    6.1481    1.0000 </r>
[...]
       </set>
       <set comment="band 28">
        <r>  0.0496  0.0095  0.0219  0.0286  0.0249  0.0139  0.0003  0.0157  0.0726 </r>
        <r>  0.1415  0.0272  0.0077  0.0816  0.0708  0.0049  0.0009  0.0055  0.2070 </r>
       </set>
      </set>
      <set comment="kpoint 93">
       <set comment="band 1">
        <r>  0.0921  0.0064  0.0041  0.0514  0.0285  0.0001  0.0389  0.0784  0.0575 </r>
        <r>  0.0197  0.0014  0.0192  0.0110  0.0061  0.0004  0.0083  0.3672  0.0123 </r>
       </set>
       <set comment="band 2">
        <r>  0.0197  0.0014  0.0192  0.0110  0.0061  0.0004  0.0083  0.3672  0.0123 </r>
        <r>  0.0921  0.0064  0.0041  0.0514  0.0285  0.0001  0.0389  0.0784  0.0575 </r>
       </set>
       <set comment="band 3">
        <r>  0.0066  0.0169  0.0196  0.0041  0.2124  0.0427  0.0009  0.0004  0.0135 </r>
        <r>  0.0138  0.0356  0.0093  0.0087  0.4457  0.0203  0.0020  0.0002  0.0283 </r>
       </set>
       <set comment="band 4">
        <r>  0.0138  0.0356  0.0093  0.0087  0.4457  0.0203  0.0020  0.0002  0.0283 </r>
        <r>  0.0066  0.0169  0.0196  0.0041  0.2124  0.0427  0.0009  0.0004  0.0135 </r>
       </set>
       <set comment="band 5">
        <r>  0.0009  0.0001  0.0003  0.0776  0.0002  0.0123  0.3357  0.0014  0.1514 </r>
        <r>  0.0000  0.0000  0.0070  0.0039  0.0000  0.2467  0.0167  0.0288  0.0075 </r>
       </set>
       <set comment="band 6">
        <r>  0.0000  0.0000  0.0070  0.0039  0.0000  0.2467  0.0167  0.0288  0.0075 </r>
        <r>  0.0009  0.0001  0.0003  0.0776  0.0002  0.0123  0.3357  0.0014  0.1514 </r>
       </set>
       <set comment="band 7">
        <r>  0.0072  0.0000  0.0000  0.0009  0.1091  0.0650  0.0355  0.0121  0.1706 </r>
        <r>  0.0011  0.0000  0.0000  0.0001  0.0165  0.4296  0.0054  0.0799  0.0258 </r>
       </set>
       <set comment="band 8">
        <r>  0.0011  0.0000  0.0000  0.0001  0.0165  0.4296  0.0054  0.0799  0.0258 </r>
        <r>  0.0072  0.0000  0.0000  0.0009  0.1091  0.0650  0.0355  0.0121  0.1706 </r>
       </set>
       <set comment="band 9">
        <r>  0.0000  0.0000  0.0026  0.0001  0.0003  0.0885  0.0136  0.2059  0.0044 </r>
        <r>  0.0000  0.0001  0.0001  0.0026  0.0091  0.0024  0.4925  0.0057  0.1598 </r>
       </set>
       <set comment="band 10">
        <r>  0.0000  0.0001  0.0001  0.0026  0.0091  0.0024  0.4925  0.0057  0.1598 </r>
        <r>  0.0000  0.0000  0.0026  0.0001  0.0003  0.0885  0.0136  0.2059  0.0044 </r>
       </set>
       <set comment="band 11">
        <r>  0.0763  0.0029  0.0010  0.1589  0.0198  0.0001  0.0011  0.0022  0.3698 </r>
        <r>  0.0011  0.0000  0.0646  0.0024  0.0003  0.0061  0.0000  0.1487  0.0055 </r>
       </set>
       <set comment="band 12">
        <r>  0.0011  0.0000  0.0646  0.0024  0.0003  0.0061  0.0000  0.1487  0.0055 </r>
        <r>  0.0763  0.0029  0.0010  0.1589  0.0198  0.0001  0.0011  0.0022  0.3698 </r>
       </set>
       <set comment="band 13">
        <r>  0.0003  0.0654  0.0488  0.0013  0.0652  0.0263  0.0003  0.0511  0.0003 </r>
        <r>  0.0012  0.2289  0.0140  0.0045  0.2279  0.0075  0.0011  0.0146  0.0010 </r>
       </set>
       <set comment="band 14">
        <r>  0.0012  0.2289  0.0140  0.0045  0.2279  0.0075  0.0011  0.0146  0.0010 </r>
        <r>  0.0003  0.0654  0.0488  0.0013  0.0652  0.0263  0.0003  0.0511  0.0003 </r>
       </set>
       <set comment="band 15">
        <r>  0.2206  0.0002  0.0017  0.0978  0.0001  0.0452  0.0332  0.0285  0.0000 </r>
        <r>  0.1461  0.0001  0.0025  0.0648  0.0001  0.0682  0.0220  0.0431  0.0000 </r>
       </set>
       <set comment="band 16">
        <r>  0.1461  0.0001  0.0025  0.0648  0.0001  0.0682  0.0220  0.0431  0.0000 </r>
        <r>  0.2206  0.0002  0.0017  0.0978  0.0001  0.0452  0.0332  0.0285  0.0000 </r>
       </set>
       <set comment="band 17">
        <r>  0.0441  0.0004  0.0046  0.0682  0.0028  0.0004  0.0816  0.0015  0.0207 </r>
        <r>  0.0008  0.0000  0.2585  0.0012  0.0001  0.0222  0.0015  0.0835  0.0004 </r>
       </set>
       <set comment="band 18">
        <r>  0.0008  0.0000  0.2585  0.0012  0.0001  0.0222  0.0015  0.0835  0.0004 </r>
        <r>  0.0441  0.0004  0.0046  0.0682  0.0028  0.0004  0.0816  0.0015  0.0207 </r>
       </set>
       <set comment="band 19">
        <r>  0.0005  0.0053  0.0877  0.0009  0.0072  0.1033  0.0028  0.0959  0.0006 </r>
        <r>  0.0057  0.0655  0.0070  0.0111  0.0900  0.0083  0.0347  0.0077  0.0077 </r>
       </set>
       <set comment="band 20">
        <r>  0.0057  0.0655  0.0070  0.0111  0.0900  0.0083  0.0347  0.0077  0.0077 </r>
        <r>  0.0005  0.0053  0.0877  0.0009  0.0072  0.1033  0.0028  0.0959  0.0006 </r>
       </set>
       <set comment="band 21">
        <r>  0.0335  0.0075  0.0014  0.0532  0.0244  0.0002  0.2449  0.0032  0.0335 </r>
        <r>  0.0007  0.0001  0.0701  0.0011  0.0005  0.0112  0.0049  0.1627  0.0007 </r>
       </set>
       <set comment="band 22">
        <r>  0.0007  0.0001  0.0701  0.0011  0.0005  0.0112  0.0049  0.1627  0.0007 </r>
        <r>  0.0335  0.0075  0.0014  0.0532  0.0244  0.0002  0.2449  0.0032  0.0335 </r>
       </set>
       <set comment="band 23">
        <r>  0.0000  0.0130  0.0471  0.0001  0.0101  0.0244  0.0000  0.0136  0.0000 </r>
        <r>  0.0009  0.2469  0.0025  0.0010  0.1914  0.0013  0.0000  0.0007  0.0000 </r>
       </set>
       <set comment="band 24">
        <r>  0.0009  0.2469  0.0025  0.0010  0.1914  0.0013  0.0000  0.0007  0.0000 </r>
        <r>  0.0000  0.0130  0.0471  0.0001  0.0101  0.0244  0.0000  0.0136  0.0000 </r>
       </set>
       <set comment="band 25">
        <r>  0.0278  0.0000  0.0080  0.0001  0.0001  0.3018  0.0001  0.0589  0.0118 </r>
        <r>  0.4966  0.0001  0.0004  0.0026  0.0017  0.0169  0.0019  0.0033  0.2110 </r>
       </set>
       <set comment="band 26">
        <r>  0.4966  0.0001  0.0004  0.0026  0.0017  0.0169  0.0019  0.0033  0.2110 </r>
        <r>  0.0278  0.0000  0.0080  0.0001  0.0001  0.3018  0.0001  0.0589  0.0118 </r>
       </set>
       <set comment="band 27">
        <r>  0.0736  0.0000  0.0037  0.0000  0.0000  0.0337  0.0000  0.0021  0.0002 </r>
        <r>  5.6256  0.0000  0.0000  0.0018  0.0001  0.0004  0.0011  0.0000  0.0184 </r>
       </set>
       <set comment="band 28">
        <r>  5.6256  0.0000  0.0000  0.0018  0.0001  0.0004  0.0011  0.0000  0.0184 </r>
        <r>  0.0736  0.0000  0.0037  0.0000  0.0000  0.0337  0.0000  0.0021  0.0002 </r>
       </set>
      </set>
      <set comment="kpoint 94">
       <set comment="band 1">
        <r>  0.0063  0.0021  0.0033  0.0034  0.0109  0.0360  0.0074  0.3922  0.0066 </r>
        <r>  0.0551  0.0185  0.0004  0.0298  0.0955  0.0041  0.0650  0.0447  0.0583 </r>
       </set>
       <set comment="band 2">
        <r>  0.0551  0.0185  0.0004  0.0298  0.0955  0.0041  0.0650  0.0447  0.0583 </r>
        <r>  0.0063  0.0021  0.0033  0.0034  0.0109  0.0360  0.0074  0.3922  0.0066 </r>
       </set>
       <set comment="band 3">
        <r>  0.0034  0.0106  0.0058  0.0003  0.0797  0.1789  0.0387  0.0554  0.0038 </r>
        <r>  0.0110  0.0343  0.0018  0.0010  0.2583  0.0552  0.1254  0.0171  0.0122 </r>
       </set>
       <set comment="band 4">
        <r>  0.0110  0.0343  0.0018  0.0010  0.2583  0.0552  0.1254  0.0171  0.0122 </r>
        <r>  0.0034  0.0106  0.0058  0.0003  0.0797  0.1789  0.0387  0.0554  0.0038 </r>
       </set>
       <set comment="band 5">
        <r>  0.0011  0.0034  0.0286  0.0180  0.0304  0.1481  0.0112  0.0036  0.0491 </r>
        <r>  0.0052  0.0157  0.0061  0.0839  0.1418  0.0317  0.0525  0.0008  0.2291 </r>
       </set>
       <set comment="band 6">
        <r>  0.0052  0.0157  0.0061  0.0839  0.1418  0.0317  0.0525  0.0008  0.2291 </r>
        <r>  0.0011  0.0034  0.0286  0.0180  0.0304  0.1481  0.0112  0.0036  0.0491 </r>
       </set>
       <set comment="band 7">
        <r>  0.0024  0.0018  0.0002  0.0076  0.1373  0.0557  0.0180  0.0229  0.2471 </r>
        <r>  0.0005  0.0004  0.0009  0.0016  0.0286  0.2679  0.0038  0.1099  0.0514 </r>
       </set>
       <set comment="band 8">
        <r>  0.0005  0.0004  0.0009  0.0016  0.0286  0.2679  0.0038  0.1099  0.0514 </r>
        <r>  0.0024  0.0018  0.0002  0.0076  0.1373  0.0557  0.0180  0.0229  0.2471 </r>
       </set>
       <set comment="band 9">
        <r>  0.0002  0.0000  0.0008  0.0003  0.0021  0.0843  0.1267  0.1465  0.0100 </r>
        <r>  0.0010  0.0001  0.0002  0.0011  0.0082  0.0211  0.5067  0.0366  0.0399 </r>
       </set>
       <set comment="band 10">
        <r>  0.0010  0.0001  0.0002  0.0011  0.0082  0.0211  0.5067  0.0366  0.0399 </r>
        <r>  0.0002  0.0000  0.0008  0.0003  0.0021  0.0843  0.1267  0.1465  0.0100 </r>
       </set>
       <set comment="band 11">
        <r>  0.0181  0.0126  0.0481  0.1182  0.0201  0.0045  0.0008  0.0329  0.1531 </r>
        <r>  0.0180  0.0125  0.0485  0.1174  0.0200  0.0045  0.0008  0.0332  0.1520 </r>
       </set>
       <set comment="band 12">
        <r>  0.0180  0.0125  0.0485  0.1174  0.0200  0.0045  0.0008  0.0332  0.1520 </r>
        <r>  0.0181  0.0126  0.0481  0.1182  0.0201  0.0045  0.0008  0.0329  0.1531 </r>
       </set>
       <set comment="band 13">
        <r>  0.0877  0.1158  0.0143  0.0094  0.1304  0.0217  0.0047  0.0429  0.0079 </r>
        <r>  0.0606  0.0800  0.0207  0.0065  0.0901  0.0314  0.0033  0.0621  0.0055 </r>
       </set>
       <set comment="band 14">
        <r>  0.0606  0.0800  0.0207  0.0065  0.0901  0.0314  0.0033  0.0621  0.0055 </r>
        <r>  0.0877  0.1158  0.0143  0.0094  0.1304  0.0217  0.0047  0.0429  0.0079 </r>
       </set>
       <set comment="band 15">
        <r>  0.0403  0.0114  0.0125  0.0084  0.0058  0.1032  0.0046  0.0543  0.0008 </r>
        <r>  0.2869  0.0815  0.0018  0.0600  0.0410  0.0145  0.0325  0.0076  0.0060 </r>
       </set>
       <set comment="band 16">
        <r>  0.2869  0.0815  0.0018  0.0600  0.0410  0.0145  0.0325  0.0076  0.0060 </r>
        <r>  0.0403  0.0114  0.0125  0.0084  0.0058  0.1032  0.0046  0.0543  0.0008 </r>
       </set>
       <set comment="band 17">
        <r>  0.0098  0.0066  0.0499  0.0786  0.0038  0.0062  0.0196  0.0143  0.0245 </r>
        <r>  0.0022  0.0015  0.2234  0.0176  0.0008  0.0276  0.0044  0.0638  0.0055 </r>
       </set>
       <set comment="band 18">
        <r>  0.0022  0.0015  0.2234  0.0176  0.0008  0.0276  0.0044  0.0638  0.0055 </r>
        <r>  0.0098  0.0066  0.0499  0.0786  0.0038  0.0062  0.0196  0.0143  0.0245 </r>
       </set>
       <set comment="band 19">
        <r>  0.0172  0.0606  0.0196  0.0017  0.0675  0.0151  0.0470  0.0237  0.0058 </r>
        <r>  0.0030  0.0107  0.1106  0.0003  0.0120  0.0849  0.0083  0.1338  0.0010 </r>
       </set>
       <set comment="band 20">
        <r>  0.0030  0.0107  0.1106  0.0003  0.0120  0.0849  0.0083  0.1338  0.0010 </r>
        <r>  0.0172  0.0606  0.0196  0.0017  0.0675  0.0151  0.0470  0.0237  0.0058 </r>
       </set>
       <set comment="band 21">
        <r>  0.0314  0.0211  0.0172  0.0174  0.0009  0.0271  0.1725  0.0326  0.0034 </r>
        <r>  0.0221  0.0148  0.0246  0.0122  0.0006  0.0386  0.1210  0.0464  0.0024 </r>
       </set>
       <set comment="band 22">
        <r>  0.0221  0.0148  0.0246  0.0122  0.0006  0.0386  0.1210  0.0464  0.0024 </r>
        <r>  0.0314  0.0211  0.0172  0.0174  0.0009  0.0271  0.1725  0.0326  0.0034 </r>
       </set>
       <set comment="band 23">
        <r>  0.0069  0.0104  0.0271  0.0007  0.0166  0.0997  0.0002  0.0419  0.0028 </r>
        <r>  0.0882  0.1339  0.0021  0.0084  0.2133  0.0078  0.0026  0.0033  0.0358 </r>
       </set>
       <set comment="band 24">
        <r>  0.0882  0.1339  0.0021  0.0084  0.2133  0.0078  0.0026  0.0033  0.0358 </r>
        <r>  0.0069  0.0104  0.0271  0.0007  0.0166  0.0997  0.0002  0.0419  0.0028 </r>
       </set>
       <set comment="band 25">
        <r>  0.1621  0.0184  0.0115  0.0122  0.0177  0.1115  0.0023  0.0174  0.0664 </r>
        <r>  0.3193  0.0363  0.0059  0.0240  0.0349  0.0566  0.0045  0.0088  0.1308 </r>
       </set>
       <set comment="band 26">
        <r>  0.3193  0.0363  0.0059  0.0240  0.0349  0.0566  0.0045  0.0088  0.1308 </r>
        <r>  0.1621  0.0184  0.0115  0.0122  0.0177  0.1115  0.0023  0.0174  0.0664 </r>
       </set>
       <set comment="band 27">
        <r>  0.9501  0.0003  0.0079  0.0181  0.0012  0.0002  0.0032  0.0239  0.0285 </r>
        <r>  2.3519  0.0007  0.0032  0.0447  0.0029  0.0001  0.0079  0.0096  0.0706 </r>
       </set>
       <set comment="band 28">
        <r>  2.3519  0.0007  0.0032  0.0447  0.0029  0.0001  0.0079  0.0096  0.0706 </r>
        <r>  0.9501  0.0003  0.0079  0.0181  0.0012  0.0002  0.0032  0.0239  0.0285 </r>
       </set>
      </set>
      <set comment="kpoint 95">
       <set comment="band 1">
        <r>  0.0000  0.0518  0.0000  0.0518  0.1387  0.0138  0.0000  0.0138  0.1387 </r>
        <r>  0.0000  0.0037  0.0000  0.0037  0.0099  0.1929  0.0000  0.1929  0.0099 </r>
       </set>
       <set comment="band 2">
        <r>  0.0000  0.0037  0.0000  0.0037  0.0099  0.1929  0.0000  0.1929  0.0099 </r>
        <r>  0.0000  0.0518  0.0000  0.0518  0.1387  0.0138  0.0000  0.0138  0.1387 </r>
       </set>
       <set comment="band 3">
        <r>  0.0571  0.0000  0.0000  0.0000  0.0000  0.0323  0.2320  0.0323  0.0000 </r>
        <r>  0.0072  0.0000  0.0000  0.0000  0.0000  0.2567  0.0292  0.2567  0.0000 </r>
       </set>
       <set comment="band 4">
        <r>  0.0072  0.0000  0.0000  0.0000  0.0000  0.2567  0.0292  0.2567  0.0000 </r>
        <r>  0.0571  0.0000  0.0000  0.0000  0.0000  0.0323  0.2320  0.0323  0.0000 </r>
       </set>
       <set comment="band 5">
        <r>  0.0000  0.0068  0.0372  0.0068  0.0402  0.0000  0.0000  0.0000  0.0402 </r>
        <r>  0.0000  0.0534  0.0048  0.0534  0.3136  0.0000  0.0000  0.0000  0.3136 </r>
       </set>
       <set comment="band 6">
        <r>  0.0000  0.0534  0.0048  0.0534  0.3136  0.0000  0.0000  0.0000  0.3136 </r>
        <r>  0.0000  0.0068  0.0372  0.0068  0.0402  0.0000  0.0000  0.0000  0.0402 </r>
       </set>
       <set comment="band 7">
        <r>  0.0000  0.0030  0.0000  0.0030  0.2444  0.0108  0.0000  0.0108  0.2444 </r>
        <r>  0.0000  0.0002  0.0000  0.0002  0.0126  0.2093  0.0000  0.2093  0.0126 </r>
       </set>
       <set comment="band 8">
        <r>  0.0000  0.0002  0.0000  0.0002  0.0126  0.2093  0.0000  0.2093  0.0126 </r>
        <r>  0.0000  0.0030  0.0000  0.0030  0.2444  0.0108  0.0000  0.0108  0.2444 </r>
       </set>
       <set comment="band 9">
        <r>  0.0009  0.0000  0.0000  0.0000  0.0000  0.1060  0.1775  0.1060  0.0000 </r>
        <r>  0.0025  0.0000  0.0000  0.0000  0.0000  0.0363  0.5191  0.0363  0.0000 </r>
       </set>
       <set comment="band 10">
        <r>  0.0025  0.0000  0.0000  0.0000  0.0000  0.0363  0.5191  0.0363  0.0000 </r>
        <r>  0.0009  0.0000  0.0000  0.0000  0.0000  0.1060  0.1775  0.1060  0.0000 </r>
       </set>
       <set comment="band 11">
        <r>  0.0000  0.0521  0.0998  0.0521  0.0609  0.0000  0.0000  0.0000  0.0609 </r>
        <r>  0.0000  0.0980  0.0531  0.0980  0.1145  0.0000  0.0000  0.0000  0.1145 </r>
       </set>
       <set comment="band 12">
        <r>  0.0000  0.0980  0.0531  0.0980  0.1145  0.0000  0.0000  0.0000  0.1145 </r>
        <r>  0.0000  0.0521  0.0998  0.0521  0.0609  0.0000  0.0000  0.0000  0.0609 </r>
       </set>
       <set comment="band 13">
        <r>  0.0000  0.0651  0.0000  0.0651  0.0503  0.0523  0.0000  0.0523  0.0503 </r>
        <r>  0.0000  0.1019  0.0000  0.1019  0.0787  0.0334  0.0000  0.0334  0.0787 </r>
       </set>
       <set comment="band 14">
        <r>  0.0000  0.1019  0.0000  0.1019  0.0787  0.0334  0.0000  0.0334  0.0787 </r>
        <r>  0.0000  0.0651  0.0000  0.0651  0.0503  0.0523  0.0000  0.0523  0.0503 </r>
       </set>
       <set comment="band 15">
        <r>  0.5105  0.0000  0.0000  0.0000  0.0000  0.0057  0.0401  0.0057  0.0000 </r>
        <r>  0.0260  0.0000  0.0000  0.0000  0.0000  0.1121  0.0020  0.1121  0.0000 </r>
       </set>
       <set comment="band 16">
        <r>  0.0260  0.0000  0.0000  0.0000  0.0000  0.1121  0.0020  0.1121  0.0000 </r>
        <r>  0.5105  0.0000  0.0000  0.0000  0.0000  0.0057  0.0401  0.0057  0.0000 </r>
       </set>
       <set comment="band 17">
        <r>  0.0000  0.0030  0.4187  0.0030  0.0019  0.0000  0.0000  0.0000  0.0019 </r>
        <r>  0.0000  0.0537  0.0237  0.0537  0.0328  0.0000  0.0000  0.0000  0.0328 </r>
       </set>
       <set comment="band 18">
        <r>  0.0000  0.0537  0.0237  0.0537  0.0328  0.0000  0.0000  0.0000  0.0328 </r>
        <r>  0.0000  0.0030  0.4187  0.0030  0.0019  0.0000  0.0000  0.0000  0.0019 </r>
       </set>
       <set comment="band 19">
        <r>  0.0000  0.0125  0.0000  0.0125  0.0046  0.1361  0.0000  0.1361  0.0046 </r>
        <r>  0.0000  0.0421  0.0000  0.0421  0.0153  0.0405  0.0000  0.0405  0.0153 </r>
       </set>
       <set comment="band 20">
        <r>  0.0000  0.0421  0.0000  0.0421  0.0153  0.0405  0.0000  0.0405  0.0153 </r>
        <r>  0.0000  0.0125  0.0000  0.0125  0.0046  0.1361  0.0000  0.1361  0.0046 </r>
       </set>
       <set comment="band 21">
        <r>  0.0834  0.0000  0.0000  0.0000  0.0000  0.0201  0.3054  0.0201  0.0000 </r>
        <r>  0.0213  0.0000  0.0000  0.0000  0.0000  0.0787  0.0779  0.0787  0.0000 </r>
       </set>
       <set comment="band 22">
        <r>  0.0213  0.0000  0.0000  0.0000  0.0000  0.0787  0.0779  0.0787  0.0000 </r>
        <r>  0.0834  0.0000  0.0000  0.0000  0.0000  0.0201  0.3054  0.0201  0.0000 </r>
       </set>
       <set comment="band 23">
        <r>  0.0000  0.0108  0.0000  0.0108  0.0253  0.0536  0.0000  0.0536  0.0253 </r>
        <r>  0.0000  0.0695  0.0000  0.0695  0.1627  0.0083  0.0000  0.0083  0.1627 </r>
       </set>
       <set comment="band 24">
        <r>  0.0000  0.0695  0.0000  0.0695  0.1627  0.0083  0.0000  0.0083  0.1627 </r>
        <r>  0.0000  0.0108  0.0000  0.0108  0.0253  0.0536  0.0000  0.0536  0.0253 </r>
       </set>
       <set comment="band 25">
        <r>  0.0000  0.0610  0.0274  0.0610  0.0908  0.0000  0.0000  0.0000  0.0908 </r>
        <r>  0.0000  0.0459  0.0364  0.0459  0.0684  0.0000  0.0000  0.0000  0.0684 </r>
       </set>
       <set comment="band 26">
        <r>  0.0000  0.0459  0.0364  0.0459  0.0684  0.0000  0.0000  0.0000  0.0684 </r>
        <r>  0.0000  0.0610  0.0274  0.0610  0.0908  0.0000  0.0000  0.0000  0.0908 </r>
       </set>
       <set comment="band 27">
        <r>  0.7015  0.0000  0.0000  0.0000  0.0000  0.0869  0.0098  0.0869  0.0000 </r>
        <r>  1.0637  0.0000  0.0000  0.0000  0.0000  0.0573  0.0149  0.0573  0.0000 </r>
       </set>
       <set comment="band 28">
        <r>  1.0637  0.0000  0.0000  0.0000  0.0000  0.0573  0.0149  0.0573  0.0000 </r>
        <r>  0.7015  0.0000  0.0000  0.0000  0.0000  0.0869  0.0098  0.0869  0.0000 </r>
       </set>
      </set>
     </set>
    </set>
   </array>
  </projected>
 </calculation>
 <structure name="finalpos" >
  <crystal>
   <varray name="basis" >
    <v>       1.28352194      -2.22312521       0.00000000 </v>
    <v>       1.28352194       2.22312521       0.00000000 </v>
    <v>       0.00000000       0.00000000       4.14076318 </v>
   </varray>
   <i name="volume">     23.63075561 </i>
   <varray name="rec_basis" >
    <v>       0.38955314      -0.22490861       0.00000000 </v>
    <v>       0.38955314       0.22490861       0.00000000 </v>
    <v>       0.00000000       0.00000000       0.24150137 </v>
   </varray>
  </crystal>
  <varray name="positions" >
   <v>       0.33333333       0.66666667       0.25000000 </v>
   <v>       0.66666667       0.33333333       0.75000000 </v>
  </varray>
 </structure>
</modeling>
