<?xml version="1.0" encoding="ISO-8859-1"?>
<modeling>
 <generator>
  <i name="program" type="string">vasp </i>
  <i name="version" type="string">6.3.2  </i>
  <i name="subversion" type="string">27Jun22 (build Aug 12 2022 00:53:59) complex                          parallel </i>
  <i name="platform" type="string">tv2STD </i>
  <i name="date" type="string">2024 12 02 </i>
  <i name="time" type="string">17:32:52 </i>
 </generator>
 <incar>
  <i type="string" name="SYSTEM">Co-hcc</i>
  <i type="int" name="ISTART">     0</i>
  <i type="string" name="PREC">Accurate      normal | accurate</i>
  <i type="string" name="ALGO">Normal     Normal, Fast, Very_Fast</i>
  <i type="logical" name="ADDGRID"> F  </i>
  <i type="int" name="ISPIN">     2</i>
  <i type="int" name="ICHARG">     2</i>
  <i type="int" name="INIWAV">     1</i>
  <i type="int" name="NELM">   100</i>
  <i type="int" name="IBRION">     2</i>
  <i name="EDIFF">      0.00000100</i>
  <i name="EDIFFG">     -0.02000000</i>
  <i type="int" name="NSW">   100</i>
  <i type="int" name="ISIF">     2</i>
  <i type="int" name="ISYM">     1</i>
  <i name="ENCUT">    425.00000000</i>
  <v name="MAGMOM">      3.00000000      3.00000000</v>
  <i type="logical" name="LREAL"> F  </i>
  <i type="int" name="ISMEAR">     0</i>
  <i name="SIGMA">      0.05000000</i>
  <i type="int" name="NWRITE">     2</i>
  <i type="logical" name="LWAVE"> F  </i>
  <i type="logical" name="LCHARG"> F  </i>
  <i type="int" name="LORBIT">    11</i>
 </incar>
 <primitive_cell>
  <structure name="primitive_cell" >
   <crystal>
    <varray name="basis" >
     <v>       1.25983272      -2.18209429       0.00000000 </v>
     <v>       1.25983272       2.18209429       0.00000000 </v>
     <v>       0.00000000       0.00000000       4.06433953 </v>
    </varray>
    <i name="volume">     22.34633853 </i>
    <varray name="rec_basis" >
     <v>       0.39687809      -0.22913767       0.00000000 </v>
     <v>       0.39687809       0.22913767       0.00000000 </v>
     <v>       0.00000000       0.00000000       0.24604244 </v>
    </varray>
   </crystal>
   <varray name="positions" >
    <v>       0.33333333       0.66666667       0.25000000 </v>
    <v>       0.66666667       0.33333333       0.75000000 </v>
   </varray>
  </structure>
  <varray name="primitive_index" >
   <v type="int" >        1 </v>
   <v type="int" >        2 </v>
  </varray>
 </primitive_cell>
 <kpoints>
  <generation param="Gamma">
   <v type="int" name="divisions">      12       12        8 </v>
   <v name="usershift">      0.00000000       0.00000000       0.00000000 </v>
   <v name="genvec1">      0.08333333       0.00000000       0.00000000 </v>
   <v name="genvec2">      0.00000000       0.08333333       0.00000000 </v>
   <v name="genvec3">      0.00000000       0.00000000       0.12500000 </v>
   <v name="shift">      0.00000000       0.00000000       0.00000000 </v>
  </generation>
  <varray name="kpointlist" >
   <v>       0.00000000       0.00000000       0.00000000 </v>
   <v>       0.08333333      -0.00000000       0.00000000 </v>
   <v>       0.16666667      -0.00000000       0.00000000 </v>
   <v>       0.25000000      -0.00000000       0.00000000 </v>
   <v>       0.33333333      -0.00000000       0.00000000 </v>
   <v>       0.41666667      -0.00000000       0.00000000 </v>
   <v>       0.50000000      -0.00000000       0.00000000 </v>
   <v>       0.08333333       0.08333333       0.00000000 </v>
   <v>       0.16666667       0.08333333       0.00000000 </v>
   <v>       0.25000000       0.08333333       0.00000000 </v>
   <v>       0.33333333       0.08333333       0.00000000 </v>
   <v>       0.41666667       0.08333333       0.00000000 </v>
   <v>       0.16666667       0.16666667       0.00000000 </v>
   <v>       0.25000000       0.16666667       0.00000000 </v>
   <v>       0.33333333       0.16666667       0.00000000 </v>
   <v>       0.41666667       0.16666667       0.00000000 </v>
   <v>       0.25000000       0.25000000       0.00000000 </v>
   <v>       0.33333333       0.25000000       0.00000000 </v>
   <v>       0.33333333       0.33333333       0.00000000 </v>
   <v>       0.00000000       0.00000000       0.12500000 </v>
   <v>       0.08333333      -0.00000000       0.12500000 </v>
   <v>       0.16666667      -0.00000000       0.12500000 </v>
   <v>       0.25000000      -0.00000000       0.12500000 </v>
   <v>       0.33333333      -0.00000000       0.12500000 </v>
   <v>       0.41666667      -0.00000000       0.12500000 </v>
   <v>       0.50000000      -0.00000000       0.12500000 </v>
   <v>       0.08333333       0.08333333       0.12500000 </v>
   <v>       0.16666667       0.08333333       0.12500000 </v>
   <v>       0.25000000       0.08333333       0.12500000 </v>
   <v>       0.33333333       0.08333333       0.12500000 </v>
   <v>       0.41666667       0.08333333       0.12500000 </v>
   <v>       0.16666667       0.16666667       0.12500000 </v>
   <v>       0.25000000       0.16666667       0.12500000 </v>
   <v>       0.33333333       0.16666667       0.12500000 </v>
   <v>       0.41666667       0.16666667       0.12500000 </v>
   <v>       0.25000000       0.25000000       0.12500000 </v>
   <v>       0.33333333       0.25000000       0.12500000 </v>
   <v>       0.33333333       0.33333333       0.12500000 </v>
   <v>       0.00000000       0.00000000       0.25000000 </v>
   <v>       0.08333333      -0.00000000       0.25000000 </v>
   <v>       0.16666667      -0.00000000       0.25000000 </v>
   <v>       0.25000000      -0.00000000       0.25000000 </v>
   <v>       0.33333333      -0.00000000       0.25000000 </v>
   <v>       0.41666667      -0.00000000       0.25000000 </v>
   <v>       0.50000000      -0.00000000       0.25000000 </v>
   <v>       0.08333333       0.08333333       0.25000000 </v>
   <v>       0.16666667       0.08333333       0.25000000 </v>
   <v>       0.25000000       0.08333333       0.25000000 </v>
   <v>       0.33333333       0.08333333       0.25000000 </v>
   <v>       0.41666667       0.08333333       0.25000000 </v>
   <v>       0.16666667       0.16666667       0.25000000 </v>
   <v>       0.25000000       0.16666667       0.25000000 </v>
   <v>       0.33333333       0.16666667       0.25000000 </v>
   <v>       0.41666667       0.16666667       0.25000000 </v>
   <v>       0.25000000       0.25000000       0.25000000 </v>
   <v>       0.33333333       0.25000000       0.25000000 </v>
   <v>       0.33333333       0.33333333       0.25000000 </v>
   <v>       0.00000000       0.00000000       0.37500000 </v>
   <v>       0.08333333      -0.00000000       0.37500000 </v>
   <v>       0.16666667      -0.00000000       0.37500000 </v>
   <v>       0.25000000      -0.00000000       0.37500000 </v>
   <v>       0.33333333      -0.00000000       0.37500000 </v>
   <v>       0.41666667      -0.00000000       0.37500000 </v>
   <v>       0.50000000      -0.00000000       0.37500000 </v>
   <v>       0.08333333       0.08333333       0.37500000 </v>
   <v>       0.16666667       0.08333333       0.37500000 </v>
   <v>       0.25000000       0.08333333       0.37500000 </v>
   <v>       0.33333333       0.08333333       0.37500000 </v>
   <v>       0.41666667       0.08333333       0.37500000 </v>
   <v>       0.16666667       0.16666667       0.37500000 </v>
   <v>       0.25000000       0.16666667       0.37500000 </v>
   <v>       0.33333333       0.16666667       0.37500000 </v>
   <v>       0.41666667       0.16666667       0.37500000 </v>
   <v>       0.25000000       0.25000000       0.37500000 </v>
   <v>       0.33333333       0.25000000       0.37500000 </v>
   <v>       0.33333333       0.33333333       0.37500000 </v>
   <v>       0.00000000       0.00000000       0.50000000 </v>
   <v>       0.08333333      -0.00000000       0.50000000 </v>
   <v>       0.16666667      -0.00000000       0.50000000 </v>
   <v>       0.25000000      -0.00000000       0.50000000 </v>
   <v>       0.33333333      -0.00000000       0.50000000 </v>
   <v>       0.41666667      -0.00000000       0.50000000 </v>
   <v>       0.50000000      -0.00000000       0.50000000 </v>
   <v>       0.08333333       0.08333333       0.50000000 </v>
   <v>       0.16666667       0.08333333       0.50000000 </v>
   <v>       0.25000000       0.08333333       0.50000000 </v>
   <v>       0.33333333       0.08333333       0.50000000 </v>
   <v>       0.41666667       0.08333333       0.50000000 </v>
   <v>       0.16666667       0.16666667       0.50000000 </v>
   <v>       0.25000000       0.16666667       0.50000000 </v>
   <v>       0.33333333       0.16666667       0.50000000 </v>
   <v>       0.41666667       0.16666667       0.50000000 </v>
   <v>       0.25000000       0.25000000       0.50000000 </v>
   <v>       0.33333333       0.25000000       0.50000000 </v>
   <v>       0.33333333       0.33333333       0.50000000 </v>
  </varray>
  <varray name="weights" >
   <v>       0.00086806 </v>
   <v>       0.00520833 </v>
   <v>       0.00520833 </v>
   <v>       0.00520833 </v>
   <v>       0.00520833 </v>
   <v>       0.00520833 </v>
   <v>       0.00260417 </v>
   <v>       0.00520833 </v>
   <v>       0.01041667 </v>
   <v>       0.01041667 </v>
   <v>       0.01041667 </v>
   <v>       0.01041667 </v>
   <v>       0.00520833 </v>
   <v>       0.01041667 </v>
   <v>       0.01041667 </v>
   <v>       0.00520833 </v>
   <v>       0.00520833 </v>
   <v>       0.01041667 </v>
   <v>       0.00173611 </v>
   <v>       0.00173611 </v>
   <v>       0.01041667 </v>
   <v>       0.01041667 </v>
   <v>       0.01041667 </v>
   <v>       0.01041667 </v>
   <v>       0.01041667 </v>
   <v>       0.00520833 </v>
   <v>       0.01041667 </v>
   <v>       0.02083333 </v>
   <v>       0.02083333 </v>
   <v>       0.02083333 </v>
   <v>       0.02083333 </v>
   <v>       0.01041667 </v>
   <v>       0.02083333 </v>
   <v>       0.02083333 </v>
   <v>       0.01041667 </v>
   <v>       0.01041667 </v>
   <v>       0.02083333 </v>
   <v>       0.00347222 </v>
   <v>       0.00173611 </v>
   <v>       0.01041667 </v>
   <v>       0.01041667 </v>
   <v>       0.01041667 </v>
   <v>       0.01041667 </v>
   <v>       0.01041667 </v>
   <v>       0.00520833 </v>
   <v>       0.01041667 </v>
   <v>       0.02083333 </v>
   <v>       0.02083333 </v>
   <v>       0.02083333 </v>
   <v>       0.02083333 </v>
   <v>       0.01041667 </v>
   <v>       0.02083333 </v>
   <v>       0.02083333 </v>
   <v>       0.01041667 </v>
   <v>       0.01041667 </v>
   <v>       0.02083333 </v>
   <v>       0.00347222 </v>
   <v>       0.00173611 </v>
   <v>       0.01041667 </v>
   <v>       0.01041667 </v>
   <v>       0.01041667 </v>
   <v>       0.01041667 </v>
   <v>       0.01041667 </v>
   <v>       0.00520833 </v>
   <v>       0.01041667 </v>
   <v>       0.02083333 </v>
   <v>       0.02083333 </v>
   <v>       0.02083333 </v>
   <v>       0.02083333 </v>
   <v>       0.01041667 </v>
   <v>       0.02083333 </v>
   <v>       0.02083333 </v>
   <v>       0.01041667 </v>
   <v>       0.01041667 </v>
   <v>       0.02083333 </v>
   <v>       0.00347222 </v>
   <v>       0.00086806 </v>
   <v>       0.00520833 </v>
   <v>       0.00520833 </v>
   <v>       0.00520833 </v>
   <v>       0.00520833 </v>
   <v>       0.00520833 </v>
   <v>       0.00260417 </v>
   <v>       0.00520833 </v>
   <v>       0.01041667 </v>
   <v>       0.01041667 </v>
   <v>       0.01041667 </v>
   <v>       0.01041667 </v>
   <v>       0.00520833 </v>
   <v>       0.01041667 </v>
   <v>       0.01041667 </v>
   <v>       0.00520833 </v>
   <v>       0.00520833 </v>
   <v>       0.01041667 </v>
   <v>       0.00173611 </v>
  </varray>
 </kpoints>
 <parameters>
  <separator name="general" >
   <i type="string" name="SYSTEM">Co-hcc</i>
   <i type="logical" name="LCOMPAT"> F  </i>
  </separator>
  <separator name="electronic" >
   <i type="string" name="PREC">accura</i>
   <i name="ENMAX">    425.00000000</i>
   <i name="ENAUG">    477.81800000</i>
   <i name="EDIFF">      0.00000100</i>
   <i type="int" name="IALGO">    38</i>
   <i type="int" name="IWAVPR">    11</i>
   <i type="int" name="NBANDS">    24</i>
   <i type="int" name="NBANDSLOW">    -1</i>
   <i type="int" name="NBANDSHIGH">    -1</i>
   <i name="NELECT">     18.00000000</i>
   <i type="int" name="TURBO">     0</i>
   <i type="int" name="IRESTART">     0</i>
   <i type="int" name="NREBOOT">     0</i>
   <i type="int" name="NMIN">     0</i>
   <i name="EREF">      0.00000000</i>
   <separator name="electronic smearing" >
    <i type="int" name="ISMEAR">     0</i>
    <i name="SIGMA">      0.05000000</i>
    <i name="KSPACING">      0.50000000</i>
    <i type="logical" name="KGAMMA"> T  </i>
    <i type="logical" name="KBLOWUP"> T  </i>
   </separator>
   <separator name="electronic projectors" >
    <i type="logical" name="LREAL"> F  </i>
    <v name="ROPT">      0.00000000</v>
    <i type="int" name="LMAXPAW">  -100</i>
    <i type="int" name="LMAXMIX">     2</i>
    <i type="logical" name="NLSPLINE"> F  </i>
   </separator>
   <separator name="electronic startup" >
    <i type="int" name="ISTART">     0</i>
    <i type="int" name="ICHARG">     2</i>
    <i type="int" name="INIWAV">     1</i>
   </separator>
   <separator name="electronic spin" >
    <i type="int" name="ISPIN">     2</i>
    <i type="logical" name="LNONCOLLINEAR"> F  </i>
    <v name="MAGMOM">      3.00000000      3.00000000</v>
    <i name="NUPDOWN">     -1.00000000</i>
    <i type="logical" name="LSORBIT"> F  </i>
    <v name="SAXIS">      0.00000000      0.00000000      1.00000000</v>
    <i type="logical" name="LSPIRAL"> F  </i>
    <v name="QSPIRAL">      0.00000000      0.00000000      0.00000000</v>
    <i type="logical" name="LZEROZ"> F  </i>
   </separator>
   <separator name="electronic exchange-correlation" >
    <i type="logical" name="LASPH"> F  </i>
    <i type="logical" name="LMETAGGA"> F  </i>
   </separator>
   <separator name="electronic convergence" >
    <i type="int" name="NELM">   100</i>
    <i type="int" name="NELMDL">    -5</i>
    <i type="int" name="NELMIN">     2</i>
    <i name="ENINI">    425.00000000</i>
    <separator name="electronic convergence detail" >
     <i type="logical" name="LDIAG"> T  </i>
     <i type="logical" name="LSUBROT"> F  </i>
     <i name="WEIMIN">      0.00100000</i>
     <i name="EBREAK">      0.00000001</i>
     <i name="DEPER">      0.30000000</i>
     <i type="int" name="NRMM">     4</i>
     <i name="TIME">      0.40000000</i>
    </separator>
   </separator>
   <separator name="electronic mixer" >
    <i name="AMIX">      0.40000000</i>
    <i name="BMIX">      1.00000000</i>
    <i name="AMIN">      0.10000000</i>
    <i name="AMIX_MAG">      1.60000000</i>
    <i name="BMIX_MAG">      1.00000000</i>
    <separator name="electronic mixer details" >
     <i type="int" name="IMIX">     4</i>
     <i type="logical" name="MIXFIRST"> F  </i>
     <i type="int" name="MAXMIX">   -45</i>
     <i name="WC">    100.00000000</i>
     <i type="int" name="INIMIX">     1</i>
     <i type="int" name="MIXPRE">     1</i>
     <i type="int" name="MREMOVE">     5</i>
    </separator>
   </separator>
   <separator name="electronic dipolcorrection" >
    <i type="logical" name="LDIPOL"> F  </i>
    <i type="logical" name="LMONO"> F  </i>
    <i type="int" name="IDIPOL">     0</i>
    <i name="EPSILON">      1.00000000</i>
    <v name="DIPOL">   -100.00000000   -100.00000000   -100.00000000</v>
    <i name="EFIELD">      0.00000000</i>
   </separator>
  </separator>
  <separator name="grids" >
   <i type="int" name="NGX">    18</i>
   <i type="int" name="NGY">    18</i>
   <i type="int" name="NGZ">    28</i>
   <i type="int" name="NGXF">    36</i>
   <i type="int" name="NGYF">    36</i>
   <i type="int" name="NGZF">    56</i>
   <i type="logical" name="ADDGRID"> F  </i>
  </separator>
  <separator name="ionic" >
   <i type="int" name="NSW">   100</i>
   <i type="int" name="IBRION">     2</i>
   <i type="int" name="MDALGO">     0</i>
   <i type="int" name="ISIF">     2</i>
   <i name="PSTRESS">      0.00000000</i>
   <i name="EDIFFG">     -0.02000000</i>
   <i type="int" name="NFREE">     1</i>
   <i name="POTIM">      0.50000000</i>
   <i name="SMASS">     -3.00000000</i>
   <i name="SCALEE">      1.00000000</i>
  </separator>
  <separator name="ionic md" >
   <i name="TEBEG">      0.00010000</i>
   <i name="TEEND">      0.00010000</i>
   <i type="int" name="NBLOCK">     1</i>
   <i type="int" name="KBLOCK">   100</i>
   <i type="int" name="NPACO">   256</i>
   <i name="APACO">     10.00000000</i>
  </separator>
  <separator name="symmetry" >
   <i type="int" name="ISYM">     1</i>
   <i name="SYMPREC">      0.00001000</i>
  </separator>
  <separator name="dos" >
   <i type="int" name="LORBIT">    11</i>
   <v name="RWIGS">     -1.00000000</v>
   <i type="int" name="NEDOS">   301</i>
   <i name="EMIN">     10.00000000</i>
   <i name="EMAX">    -10.00000000</i>
   <i name="EFERMI">      0.00000000</i>
  </separator>
  <separator name="writing" >
   <i type="int" name="NWRITE">     2</i>
   <i type="logical" name="LWAVE"> F  </i>
   <i type="logical" name="LDOWNSAMPLE"> F  </i>
   <i type="logical" name="LCHARG"> F  </i>
   <i type="logical" name="LPARD"> F  </i>
   <i type="logical" name="LVTOT"> F  </i>
   <i type="logical" name="LVHAR"> F  </i>
   <i type="logical" name="LELF"> F  </i>
   <i type="logical" name="LOPTICS"> F  </i>
   <v name="STM">      0.00000000      0.00000000      0.00000000      0.00000000      0.00000000      0.00000000      0.00000000</v>
  </separator>
  <separator name="performance" >
   <i type="int" name="NPAR">    24</i>
   <i type="int" name="NSIM">     4</i>
   <i type="int" name="NBLK">    -1</i>
   <i type="logical" name="LPLANE"> T  </i>
   <i type="logical" name="LSCALAPACK"> T  </i>
   <i type="logical" name="LSCAAWARE"> T  </i>
   <i type="logical" name="LSCALU"> F  </i>
   <i type="logical" name="LASYNC"> F  </i>
   <i type="logical" name="LORBITALREAL"> F  </i>
  </separator>
  <separator name="miscellaneous" >
   <i type="int" name="IDIOT">     3</i>
   <i type="int" name="PHON_NSTRUCT">    -1</i>
   <i type="logical" name="LMUSIC"> F  </i>
   <v name="POMASS">     58.93300000</v>
   <v name="DARWINR">      0.00000000</v>
   <v name="DARWINV">      1.00000000</v>
   <i type="logical" name="LCORR"> T  </i>
  </separator>
  <i type="logical" name="GGA_COMPAT"> T  </i>
  <i type="logical" name="LBERRY"> F  </i>
  <i type="int" name="ICORELEVEL">     0</i>
  <i type="logical" name="LDAU"> F  </i>
  <i type="int" name="I_CONSTRAINED_M">     0</i>
  <separator name="electronic exchange-correlation" >
   <i type="string" name="GGA">--</i>
   <i type="int" name="VOSKOWN">     0</i>
   <i type="logical" name="LHFCALC"> F  </i>
   <i type="string" name="PRECFOCK"></i>
   <i type="logical" name="LSYMGRAD"> F  </i>
   <i type="logical" name="LHFONE"> F  </i>
   <i type="logical" name="LRHFCALC"> F  </i>
   <i type="logical" name="LTHOMAS"> F  </i>
   <i type="logical" name="LMODELHF"> F  </i>
   <i type="logical" name="LFOCKACE"> F  </i>
   <i name="ENCUT4O">     -1.00000000</i>
   <i type="int" name="EXXOEP">     0</i>
   <i type="int" name="FOURORBIT">     0</i>
   <i name="AEXX">      0.00000000</i>
   <i name="HFALPHA">      0.00000000</i>
   <i name="MCALPHA">      0.00000000</i>
   <i name="ALDAX">      1.00000000</i>
   <i name="AGGAX">      1.00000000</i>
   <i name="ALDAC">      1.00000000</i>
   <i name="AGGAC">      1.00000000</i>
   <i type="int" name="NKREDX">     1</i>
   <i type="int" name="NKREDY">     1</i>
   <i type="int" name="NKREDZ">     1</i>
   <i type="logical" name="SHIFTRED"> F  </i>
   <i type="logical" name="ODDONLY"> F  </i>
   <i type="logical" name="EVENONLY"> F  </i>
   <i type="int" name="LMAXFOCK">     0</i>
   <i type="int" name="NMAXFOCKAE">     0</i>
   <i type="logical" name="LFOCKAEDFT"> F  </i>
   <i name="HFSCREEN">      0.00000000</i>
   <i name="HFSCREENC">      0.00000000</i>
   <i type="int" name="NBANDSGWLOW">     0</i>
  </separator>
  <separator name="vdW DFT" >
   <i type="logical" name="LUSE_VDW"> F  </i>
   <i name="Zab_VDW">     -0.84910000</i>
   <i name="PARAM1">      0.12340000</i>
   <i name="PARAM2">      1.00000000</i>
   <i name="PARAM3">      0.00000000</i>
  </separator>
  <separator name="model GW" >
   <i type="int" name="MODEL_GW">     0</i>
   <i name="MODEL_EPS0">      6.70390156</i>
   <i name="MODEL_ALPHA">      1.00000000</i>
  </separator>
  <separator name="linear response parameters" >
   <i type="logical" name="LEPSILON"> F  </i>
   <i type="logical" name="LRPA"> F  </i>
   <i type="logical" name="LNABLA"> F  </i>
   <i type="logical" name="LVEL"> F  </i>
   <i name="CSHIFT">      0.10000000</i>
   <i name="OMEGAMAX">     -1.00000000</i>
   <i name="DEG_THRESHOLD">      0.00200000</i>
   <i name="RTIME">     -0.10000000</i>
   <i name="WPLASMAI">      0.00000000</i>
   <v name="DFIELD">      0.00000000      0.00000000      0.00000000</v>
   <v name="WPLASMA">      0.00000000      0.00000000      0.00000000      0.00000000      0.00000000      0.00000000      0.00000000      0.00000000      0.00000000</v>
  </separator>
  <separator name="orbital magnetization" >
   <i type="logical" name="NUCIND"> F  </i>
   <v name="MAGPOS">      0.00000000      0.00000000      0.00000000</v>
   <i type="logical" name="LNICSALL"> T  </i>
   <i type="logical" name="ORBITALMAG"> F  </i>
   <i type="logical" name="LMAGBLOCH"> F  </i>
   <i type="logical" name="LCHIMAG"> F  </i>
   <i type="logical" name="LGAUGE"> T  </i>
   <i type="int" name="MAGATOM">     0</i>
   <v name="MAGDIPOL">      0.00000000      0.00000000      0.00000000</v>
   <v name="AVECCONST">      0.00000000      0.00000000      0.00000000</v>
  </separator>
  <separator name="response functions" >
   <i type="logical" name="LFINITE_TEMPERATURE"> F  </i>
   <i type="logical" name="LADDER"> F  </i>
   <i type="logical" name="LRPAFORCE"> F  </i>
   <i type="logical" name="LFXC"> F  </i>
   <i type="logical" name="LHARTREE"> T  </i>
   <i type="int" name="IBSE">     0</i>
   <v type="int" name="KPOINT">    -1     0     0     0</v>
   <i type="logical" name="LTCTC"> F  </i>
   <i type="logical" name="LTCTE"> F  </i>
   <i type="logical" name="LTETE"> F  </i>
   <i type="logical" name="LTRIPLET"> F  </i>
   <i type="logical" name="LFXCEPS"> F  </i>
   <i type="logical" name="LFXHEG"> F  </i>
   <i type="int" name="NATURALO">     2</i>
   <i type="logical" name="LHOLEGF"> F  </i>
   <i type="logical" name="L2ORDER"> F  </i>
   <i type="logical" name="LDMP1"> F  </i>
   <i type="logical" name="LMP2LT"> F  </i>
   <i type="logical" name="LSMP2LT"> F  </i>
   <i type="logical" name="LGWLF"> F  </i>
   <i name="ENCUTGW">     -2.00000000</i>
   <i name="ENCUTGWSOFT">     -2.00000000</i>
   <i name="ENCUTLF">     -1.00000000</i>
   <i type="logical" name="LESF_SPLINES"> F  </i>
   <i type="int" name="LMAXMP2">    -1</i>
   <i name="SCISSOR">      0.00000000</i>
   <i type="int" name="NOMEGA">     0</i>
   <i type="int" name="NOMEGAR">     0</i>
   <i type="int" name="NBANDSGW">    -1</i>
   <i type="int" name="NBANDSO">    -1</i>
   <i type="int" name="NBANDSV">    -1</i>
   <i type="int" name="NELMGW">     1</i>
   <i type="int" name="NELMHF">     1</i>
   <i type="int" name="DIM">     3</i>
   <i type="int" name="IESPILON">     4</i>
   <i type="int" name="ANTIRES">     0</i>
   <i name="OMEGAMAX">    -30.00000000</i>
   <i name="OMEGAMIN">    -30.00000000</i>
   <i name="OMEGATL">   -200.00000000</i>
   <i type="int" name="OMEGAGRID">     0</i>
   <i name="CSHIFT">     -0.10000000</i>
   <i type="logical" name="LSELFENERGY"> F  </i>
   <i type="logical" name="LSPECTRAL"> F  </i>
   <i type="logical" name="LSPECTRALGW"> F  </i>
   <i type="logical" name="LSINGLES"> F  </i>
   <i type="logical" name="LFERMIGW"> F  </i>
   <i type="logical" name="ODDONLYGW"> F  </i>
   <i type="logical" name="EVENONLYGW"> F  </i>
   <i type="int" name="NKREDLFX">     1</i>
   <i type="int" name="NKREDLFY">     1</i>
   <i type="int" name="NKREDLFZ">     1</i>
   <i type="int" name="MAXMEM">  2800</i>
   <i type="int" name="TELESCOPE">     0</i>
   <i type="int" name="NTAUPAR">    -1</i>
   <i type="int" name="NOMEGAPAR">    -1</i>
   <i name="DAMP_NEWTON">      0.80000001</i>
   <i name="LAMBDA">      1.00000000</i>
  </separator>
  <separator name="External order field" >
   <i name="OFIELD_KAPPA">      0.00000000</i>
   <v name="OFIELD_K">      0.00000000      0.00000000      0.00000000</v>
   <i name="OFIELD_Q6_NEAR">      0.00000000</i>
   <i name="OFIELD_Q6_FAR">      0.00000000</i>
   <i name="OFIELD_A">      0.00000000</i>
  </separator>
  <separator name="optional k-points parameters" >
   <i type="int" name="KPOINTS_OPT_MODE">     1</i>
   <i type="logical" name="LKPOINTS_OPT"> F  </i>
  </separator>
 </parameters>
 <atominfo>
  <atoms>       2 </atoms>
  <types>       1 </types>
  <array name="atoms" >
   <dimension dim="1">ion</dimension>
   <field type="string">element</field>
   <field type="int">atomtype</field>
   <set>
    <rc><c>Co</c><c>   1</c></rc>
    <rc><c>Co</c><c>   1</c></rc>
   </set>
  </array>
  <array name="atomtypes" >
   <dimension dim="1">type</dimension>
   <field type="int">atomspertype</field>
   <field type="string">element</field>
   <field>mass</field>
   <field>valence</field>
   <field type="string">pseudopotential</field>
   <set>
    <rc><c>   2</c><c>Co</c><c>     58.93300000</c><c>      9.00000000</c><c>  PAW_PBE Co 02Aug2007                  </c></rc>
   </set>
  </array>
 </atominfo>
 <structure name="initialpos" >
  <crystal>
   <varray name="basis" >
    <v>       1.25983272      -2.18209429       0.00000000 </v>
    <v>       1.25983272       2.18209429       0.00000000 </v>
    <v>       0.00000000       0.00000000       4.06433953 </v>
   </varray>
   <i name="volume">     22.34633853 </i>
   <varray name="rec_basis" >
    <v>       0.39687809      -0.22913767       0.00000000 </v>
    <v>       0.39687809       0.22913767       0.00000000 </v>
    <v>       0.00000000       0.00000000       0.24604244 </v>
   </varray>
  </crystal>
  <varray name="positions" >
   <v>       0.33333333       0.66666667       0.25000000 </v>
   <v>       0.66666667       0.33333333       0.75000000 </v>
  </varray>
 </structure>
 <calculation>
  <scstep>
   <time name="dav">    0.75    0.75</time>
   <time name="total">    0.76    0.76</time>
   <energy>
    <i name="alphaZ">     75.82036911 </i>
    <i name="ewald">  -1506.81481452 </i>
    <i name="hartreedc">   -306.29815962 </i>
    <i name="XCdc">     35.44124841 </i>
    <i name="pawpsdc">   1439.98163886 </i>
    <i name="pawaedc">  -1545.88690193 </i>
    <i name="eentropy">     -0.00360480 </i>
    <i name="bandstr">    184.88110261 </i>
    <i name="atom">   1626.72322989 </i>
    <i name="e_fr_energy">      3.84410802 </i>
    <i name="e_wo_entrp">      3.84771282 </i>
    <i name="e_0_energy">      3.84591042 </i>
   </energy>
  </scstep>
  <scstep>
   <time name="dav">    1.01    1.02</time>
   <time name="total">    1.01    1.02</time>
   <energy>
    <i name="e_fr_energy">    -15.55279937 </i>
    <i name="e_wo_entrp">    -15.55084313 </i>
    <i name="e_0_energy">    -15.55182125 </i>
   </energy>
  </scstep>
  <scstep>
   <time name="dav">    1.19    1.20</time>
   <time name="total">    1.20    1.20</time>
   <energy>
    <i name="e_fr_energy">    -15.68765582 </i>
    <i name="e_wo_entrp">    -15.68572359 </i>
    <i name="e_0_energy">    -15.68668970 </i>
   </energy>
  </scstep>
  <scstep>
   <time name="dav">    1.43    1.44</time>
   <time name="total">    1.43    1.44</time>
   <energy>
    <i name="e_fr_energy">    -15.68861683 </i>
    <i name="e_wo_entrp">    -15.68668486 </i>
    <i name="e_0_energy">    -15.68765084 </i>
   </energy>
  </scstep>
  <scstep>
   <time name="dav">    1.28    1.29</time>
   <time name="total">    1.32    1.32</time>
   <energy>
    <i name="e_fr_energy">    -15.68861795 </i>
    <i name="e_wo_entrp">    -15.68668598 </i>
    <i name="e_0_energy">    -15.68765196 </i>
   </energy>
  </scstep>
  <scstep>
   <time name="dav">    1.64    1.65</time>
   <time name="total">    1.69    1.69</time>
   <energy>
    <i name="e_fr_energy">    -14.51551998 </i>
    <i name="e_wo_entrp">    -14.51385499 </i>
    <i name="e_0_energy">    -14.51468748 </i>
   </energy>
  </scstep>
  <scstep>
   <time name="dav">    1.71    1.72</time>
   <time name="total">    1.75    1.76</time>
   <energy>
    <i name="e_fr_energy">    -14.09115924 </i>
    <i name="e_wo_entrp">    -14.08859602 </i>
    <i name="e_0_energy">    -14.08987763 </i>
   </energy>
  </scstep>
  <scstep>
   <time name="dav">    1.62    1.63</time>
   <time name="total">    1.67    1.67</time>
   <energy>
    <i name="e_fr_energy">    -14.06847911 </i>
    <i name="e_wo_entrp">    -14.06582458 </i>
    <i name="e_0_energy">    -14.06715184 </i>
   </energy>
  </scstep>
  <scstep>
   <time name="dav">    2.04    2.05</time>
   <time name="total">    2.08    2.09</time>
   <energy>
    <i name="e_fr_energy">    -14.05491563 </i>
    <i name="e_wo_entrp">    -14.05221368 </i>
    <i name="e_0_energy">    -14.05356466 </i>
   </energy>
  </scstep>
  <scstep>
   <time name="dav">    2.03    2.04</time>
   <time name="total">    2.07    2.09</time>
   <energy>
    <i name="e_fr_energy">    -14.05387128 </i>
    <i name="e_wo_entrp">    -14.05116156 </i>
    <i name="e_0_energy">    -14.05251642 </i>
   </energy>
  </scstep>
  <scstep>
   <time name="dav">    1.76    1.77</time>
   <time name="total">    1.80    1.81</time>
   <energy>
    <i name="e_fr_energy">    -14.05389000 </i>
    <i name="e_wo_entrp">    -14.05118566 </i>
    <i name="e_0_energy">    -14.05253783 </i>
   </energy>
  </scstep>
  <scstep>
   <time name="dav">    1.11    1.12</time>
   <time name="total">    1.16    1.16</time>
   <energy>
    <i name="e_fr_energy">    -14.05388627 </i>
    <i name="e_wo_entrp">    -14.05118384 </i>
    <i name="e_0_energy">    -14.05253506 </i>
   </energy>
  </scstep>
  <scstep>
   <time name="dav">    1.84    1.85</time>
   <time name="total">    1.85    1.86</time>
   <energy>
    <i name="alphaZ">     75.82036911 </i>
    <i name="ewald">  -1506.81481452 </i>
    <i name="hartreedc">   -270.88757010 </i>
    <i name="XCdc">     32.71427673 </i>
    <i name="pawpsdc">   1775.30959875 </i>
    <i name="pawaedc">  -1881.09671801 </i>
    <i name="eentropy">     -0.00269967 </i>
    <i name="bandstr">    134.18044161 </i>
    <i name="atom">   1626.72322989 </i>
    <i name="e_fr_energy">    -14.05388622 </i>
    <i name="e_wo_entrp">    -14.05118655 </i>
    <i name="e_0_energy">    -14.05253638 </i>
   </energy>
  </scstep>
  <structure>
   <crystal>
    <varray name="basis" >
     <v>       1.25983272      -2.18209429       0.00000000 </v>
     <v>       1.25983272       2.18209429       0.00000000 </v>
     <v>       0.00000000       0.00000000       4.06433953 </v>
    </varray>
    <i name="volume">     22.34633853 </i>
    <varray name="rec_basis" >
     <v>       0.39687809      -0.22913767       0.00000000 </v>
     <v>       0.39687809       0.22913767       0.00000000 </v>
     <v>       0.00000000       0.00000000       0.24604244 </v>
    </varray>
   </crystal>
   <varray name="positions" >
    <v>       0.33333333       0.66666667       0.25000000 </v>
    <v>       0.66666667       0.33333333       0.75000000 </v>
   </varray>
  </structure>
  <varray name="forces" >
   <v>       0.00000000       0.00000000      -0.00000000 </v>
   <v>      -0.00000000      -0.00000000       0.00000000 </v>
  </varray>
  <varray name="stress" >
   <v>     -61.48088777      -0.00000000      -0.00000000 </v>
   <v>       0.00000000     -61.48088777       0.00000000 </v>
   <v>       0.00000000       0.00000000     -63.69404955 </v>
  </varray>
  <energy>
   <i name="e_fr_energy">    -14.05388622 </i>
   <i name="e_wo_entrp">    -14.05118655 </i>
   <i name="e_0_energy">    -14.05253638 </i>
  </energy>
  <time name="totalsc">   20.07   20.17</time>
  <eigenvalues>
   <array>
    <dimension dim="1">band</dimension>
    <dimension dim="2">kpoint</dimension>
    <dimension dim="3">spin</dimension>
    <field>eigene</field>
    <field>occ</field>
    <set>
     <set comment="spin 1">
      <set comment="kpoint 1">
       <r>    1.1057    1.0000 </r>
       <r>    4.8362    1.0000 </r>
       <r>    7.2587    1.0000 </r>
       <r>    7.2679    1.0000 </r>
       <r>    7.2679    1.0000 </r>
       <r>    7.5660    1.0000 </r>
       <r>    7.5660    1.0000 </r>
       <r>    7.8893    1.0000 </r>
       <r>    7.8893    1.0000 </r>
       <r>    8.9473    1.0000 </r>
       <r>    8.9473    1.0000 </r>
       <r>    9.8148    0.3837 </r>
       <r>   15.9598    0.0000 </r>
       <r>   31.5363    0.0000 </r>
       <r>   33.7829    0.0000 </r>
       <r>   33.7829    0.0000 </r>
       <r>   34.5630    0.0000 </r>
       <r>   35.0396    0.0000 </r>
       <r>   35.1701    0.0000 </r>
       <r>   35.1701    0.0000 </r>
       <r>   39.8601    0.0000 </r>
       <r>   39.8601    0.0000 </r>
       <r>   40.5882    0.0000 </r>
       <r>   41.2307    0.0000 </r>
      </set>
      <set comment="kpoint 2">
       <r>    1.3430    1.0000 </r>
       <r>    4.9756    1.0000 </r>
       <r>    7.0474    1.0000 </r>
       <r>    7.3757    1.0000 </r>
       <r>    7.4441    1.0000 </r>
       <r>    7.5240    1.0000 </r>
       <r>    7.6612    1.0000 </r>
       <r>    7.7519    1.0000 </r>
       <r>    7.8223    1.0000 </r>
       <r>    8.2496    1.0000 </r>
       <r>    8.9759    1.0000 </r>
       <r>   10.8159    0.0000 </r>
       <r>   16.0048    0.0000 </r>
       <r>   29.5634    0.0000 </r>
       <r>   31.7276    0.0000 </r>
       <r>   31.8807    0.0000 </r>
       <r>   35.0489    0.0000 </r>
       <r>   35.3804    0.0000 </r>
       <r>   36.7614    0.0000 </r>
       <r>   37.4628    0.0000 </r>
       <r>   38.2236    0.0000 </r>
       <r>   39.3111    0.0000 </r>
       <r>   40.1596    0.0000 </r>
       <r>   40.3192    0.0000 </r>
      </set>
      <set comment="kpoint 3">
       <r>    2.0303    1.0000 </r>
       <r>    5.3197    1.0000 </r>
       <r>    6.7891    1.0000 </r>
       <r>    7.0983    1.0000 </r>
       <r>    7.3629    1.0000 </r>
       <r>    7.6567    1.0000 </r>
       <r>    7.6793    1.0000 </r>
       <r>    7.7337    1.0000 </r>
       <r>    7.8715    1.0000 </r>
       <r>    7.9273    1.0000 </r>
       <r>    9.0369    1.0000 </r>
       <r>   12.3538    0.0000 </r>
       <r>   16.1613    0.0000 </r>
       <r>   25.7492    0.0000 </r>
       <r>   29.3897    0.0000 </r>
       <r>   30.9644    0.0000 </r>
       <r>   32.8614    0.0000 </r>
       <r>   35.1514    0.0000 </r>
       <r>   35.7127    0.0000 </r>
       <r>   37.8356    0.0000 </r>
       <r>   38.4594    0.0000 </r>
       <r>   39.0142    0.0000 </r>
       <r>   39.5539    0.0000 </r>
       <r>   40.9278    0.0000 </r>
      </set>
      <set comment="kpoint 4">
       <r>    3.0722    1.0000 </r>
       <r>    5.5941    1.0000 </r>
       <r>    6.4078    1.0000 </r>
       <r>    6.6363    1.0000 </r>
       <r>    7.2787    1.0000 </r>
       <r>    7.4573    1.0000 </r>
       <r>    7.6804    1.0000 </r>
       <r>    8.1188    1.0000 </r>
       <r>    8.1401    1.0000 </r>
       <r>    8.3095    1.0000 </r>
       <r>    9.0950    1.0000 </r>
       <r>   14.1038    0.0000 </r>
       <r>   16.4635    0.0000 </r>
       <r>   22.0817    0.0000 </r>
       <r>   27.3647    0.0000 </r>
       <r>   29.5363    0.0000 </r>
       <r>   29.7544    0.0000 </r>
       <r>   33.3372    0.0000 </r>
       <r>   34.1199    0.0000 </r>
       <r>   37.5231    0.0000 </r>
       <r>   37.7729    0.0000 </r>
       <r>   38.5427    0.0000 </r>
       <r>   39.6186    0.0000 </r>
       <r>   42.5050    0.0000 </r>
      </set>
      <set comment="kpoint 5">
       <r>    4.2119    1.0000 </r>
       <r>    5.5298    1.0000 </r>
       <r>    5.9034    1.0000 </r>
       <r>    6.7515    1.0000 </r>
       <r>    7.2776    1.0000 </r>
       <r>    7.3988    1.0000 </r>
       <r>    7.5145    1.0000 </r>
       <r>    8.5854    1.0000 </r>
       <r>    8.7234    1.0000 </r>
       <r>    8.7947    1.0000 </r>
       <r>    9.1352    1.0000 </r>
       <r>   16.0203    0.0000 </r>
       <r>   16.5713    0.0000 </r>
       <r>   19.2411    0.0000 </r>
       <r>   25.7624    0.0000 </r>
       <r>   26.4942    0.0000 </r>
       <r>   27.4667    0.0000 </r>
       <r>   31.9038    0.0000 </r>
       <r>   32.9979    0.0000 </r>
       <r>   35.7779    0.0000 </r>
       <r>   37.3023    0.0000 </r>
       <r>   39.2721    0.0000 </r>
       <r>   41.3824    0.0000 </r>
       <r>   43.6162    0.0000 </r>
      </set>
      <set comment="kpoint 6">
       <r>    4.9589    1.0000 </r>
       <r>    5.3517    1.0000 </r>
       <r>    5.6014    1.0000 </r>
       <r>    7.1133    1.0000 </r>
       <r>    7.1548    1.0000 </r>
       <r>    7.3978    1.0000 </r>
       <r>    7.5922    1.0000 </r>
       <r>    8.9332    1.0000 </r>
       <r>    9.0654    1.0000 </r>
       <r>    9.1568    1.0000 </r>
       <r>    9.8817    0.0143 </r>
       <r>   14.7184    0.0000 </r>
       <r>   18.0096    0.0000 </r>
       <r>   19.1845    0.0000 </r>
       <r>   23.8411    0.0000 </r>
       <r>   24.7119    0.0000 </r>
       <r>   24.8473    0.0000 </r>
       <r>   31.4328    0.0000 </r>
       <r>   32.2407    0.0000 </r>
       <r>   34.6492    0.0000 </r>
       <r>   37.0319    0.0000 </r>
       <r>   39.7236    0.0000 </r>
       <r>   43.7560    0.0000 </r>
       <r>   44.2138    0.0000 </r>
      </set>
      <set comment="kpoint 7">
       <r>    5.2118    1.0000 </r>
       <r>    5.2149    1.0000 </r>
       <r>    5.5011    1.0000 </r>
       <r>    7.1113    1.0000 </r>
       <r>    7.3559    1.0000 </r>
       <r>    7.3567    1.0000 </r>
       <r>    7.6645    1.0000 </r>
       <r>    9.0588    1.0000 </r>
       <r>    9.1633    1.0000 </r>
       <r>    9.2033    1.0000 </r>
       <r>   11.0423    0.0000 </r>
       <r>   12.9829    0.0000 </r>
       <r>   19.3131    0.0000 </r>
       <r>   19.9235    0.0000 </r>
       <r>   22.3188    0.0000 </r>
       <r>   23.4248    0.0000 </r>
       <r>   24.3423    0.0000 </r>
       <r>   31.3171    0.0000 </r>
       <r>   31.9783    0.0000 </r>
       <r>   34.2577    0.0000 </r>
       <r>   36.9442    0.0000 </r>
       <r>   39.8913    0.0000 </r>
       <r>   44.3703    0.0000 </r>
       <r>   46.3180    0.0000 </r>
      </set>
      <set comment="kpoint 8">
       <r>    1.8061    1.0000 </r>
       <r>    5.2229    1.0000 </r>
       <r>    6.8434    1.0000 </r>
       <r>    7.3318    1.0000 </r>
       <r>    7.4252    1.0000 </r>
       <r>    7.5934    1.0000 </r>
       <r>    7.5954    1.0000 </r>
       <r>    7.6324    1.0000 </r>
       <r>    7.8716    1.0000 </r>
       <r>    7.9842    1.0000 </r>
       <r>    9.0117    1.0000 </r>
       <r>   11.9203    0.0000 </r>
       <r>   16.1074    0.0000 </r>
       <r>   27.5030    0.0000 </r>
       <r>   28.1403    0.0000 </r>
       <r>   33.3943    0.0000 </r>
       <r>   34.3933    0.0000 </r>
       <r>   34.5680    0.0000 </r>
       <r>   34.6344    0.0000 </r>
       <r>   37.6543    0.0000 </r>
       <r>   38.3796    0.0000 </r>
       <r>   38.9226    0.0000 </r>
       <r>   41.2067    0.0000 </r>
       <r>   41.6295    0.0000 </r>
      </set>
      <set comment="kpoint 9">
       <r>    2.6789    1.0000 </r>
       <r>    5.5747    1.0000 </r>
       <r>    6.5878    1.0000 </r>
       <r>    6.6632    1.0000 </r>
       <r>    7.3144    1.0000 </r>
       <r>    7.4223    1.0000 </r>
       <r>    7.8329    1.0000 </r>
       <r>    7.8343    1.0000 </r>
       <r>    7.9960    1.0000 </r>
       <r>    8.2656    1.0000 </r>
       <r>    9.0560    1.0000 </r>
       <r>   13.4706    0.0000 </r>
       <r>   16.3567    0.0000 </r>
       <r>   23.9591    0.0000 </r>
       <r>   26.1354    0.0000 </r>
       <r>   31.2313    0.0000 </r>
       <r>   32.1498    0.0000 </r>
       <r>   33.2522    0.0000 </r>
       <r>   34.7019    0.0000 </r>
       <r>   35.9179    0.0000 </r>
       <r>   37.9312    0.0000 </r>
       <r>   39.5691    0.0000 </r>
       <r>   41.1922    0.0000 </r>
       <r>   41.6471    0.0000 </r>
      </set>
      <set comment="kpoint 10">
       <r>    3.8060    1.0000 </r>
       <r>    5.6886    1.0000 </r>
       <r>    6.1106    1.0000 </r>
       <r>    6.5271    1.0000 </r>
       <r>    7.2456    1.0000 </r>
       <r>    7.3293    1.0000 </r>
       <r>    7.6489    1.0000 </r>
       <r>    8.2139    1.0000 </r>
       <r>    8.4696    1.0000 </r>
       <r>    8.8038    1.0000 </r>
       <r>    9.0934    1.0000 </r>
       <r>   15.2672    0.0000 </r>
       <r>   16.7385    0.0000 </r>
       <r>   20.5428    0.0000 </r>
       <r>   24.6297    0.0000 </r>
       <r>   28.0887    0.0000 </r>
       <r>   29.4254    0.0000 </r>
       <r>   32.0118    0.0000 </r>
       <r>   33.9336    0.0000 </r>
       <r>   34.3685    0.0000 </r>
       <r>   38.5867    0.0000 </r>
       <r>   41.0454    0.0000 </r>
       <r>   41.2905    0.0000 </r>
       <r>   42.3144    0.0000 </r>
      </set>
      <set comment="kpoint 11">
       <r>    4.7972    1.0000 </r>
       <r>    5.5232    1.0000 </r>
       <r>    5.7358    1.0000 </r>
       <r>    6.7595    1.0000 </r>
       <r>    7.1305    1.0000 </r>
       <r>    7.4683    1.0000 </r>
       <r>    7.5134    1.0000 </r>
       <r>    8.6877    1.0000 </r>
       <r>    8.8732    1.0000 </r>
       <r>    9.1168    1.0000 </r>
       <r>    9.5811    1.0000 </r>
       <r>   16.0597    0.0000 </r>
       <r>   17.2274    0.0000 </r>
       <r>   18.9409    0.0000 </r>
       <r>   23.4681    0.0000 </r>
       <r>   25.2325    0.0000 </r>
       <r>   26.4646    0.0000 </r>
       <r>   31.1180    0.0000 </r>
       <r>   33.2862    0.0000 </r>
       <r>   33.3474    0.0000 </r>
       <r>   38.6090    0.0000 </r>
       <r>   41.3841    0.0000 </r>
       <r>   42.9007    0.0000 </r>
       <r>   43.9672    0.0000 </r>
      </set>
      <set comment="kpoint 12">
       <r>    5.2351    1.0000 </r>
       <r>    5.3690    1.0000 </r>
       <r>    5.5481    1.0000 </r>
       <r>    7.0837    1.0000 </r>
       <r>    7.1204    1.0000 </r>
       <r>    7.3491    1.0000 </r>
       <r>    7.6610    1.0000 </r>
       <r>    9.0236    1.0000 </r>
       <r>    9.0910    1.0000 </r>
       <r>    9.1271    1.0000 </r>
       <r>   10.8577    0.0000 </r>
       <r>   13.7478    0.0000 </r>
       <r>   19.1121    0.0000 </r>
       <r>   19.8180    0.0000 </r>
       <r>   22.7000    0.0000 </r>
       <r>   22.9051    0.0000 </r>
       <r>   24.2291    0.0000 </r>
       <r>   30.6544    0.0000 </r>
       <r>   32.7115    0.0000 </r>
       <r>   33.0556    0.0000 </r>
       <r>   38.4863    0.0000 </r>
       <r>   41.5875    0.0000 </r>
       <r>   44.3995    0.0000 </r>
       <r>   45.3235    0.0000 </r>
      </set>
      <set comment="kpoint 13">
       <r>    3.6623    1.0000 </r>
       <r>    5.8587    1.0000 </r>
       <r>    6.2199    1.0000 </r>
       <r>    6.3113    1.0000 </r>
       <r>    7.1803    1.0000 </r>
       <r>    7.3256    1.0000 </r>
       <r>    7.7358    1.0000 </r>
       <r>    7.9923    1.0000 </r>
       <r>    8.4594    1.0000 </r>
       <r>    8.8238    1.0000 </r>
       <r>    9.0576    1.0000 </r>
       <r>   15.0121    0.0000 </r>
       <r>   16.7673    0.0000 </r>
       <r>   22.2696    0.0000 </r>
       <r>   22.6688    0.0000 </r>
       <r>   29.6553    0.0000 </r>
       <r>   30.3628    0.0000 </r>
       <r>   31.4121    0.0000 </r>
       <r>   32.1462    0.0000 </r>
       <r>   36.7825    0.0000 </r>
       <r>   38.9787    0.0000 </r>
       <r>   39.2527    0.0000 </r>
       <r>   42.7897    0.0000 </r>
       <r>   44.0249    0.0000 </r>
      </set>
      <set comment="kpoint 14">
       <r>    4.7386    1.0000 </r>
       <r>    5.8447    1.0000 </r>
       <r>    5.8701    1.0000 </r>
       <r>    6.2919    1.0000 </r>
       <r>    7.0345    1.0000 </r>
       <r>    7.4643    1.0000 </r>
       <r>    7.5557    1.0000 </r>
       <r>    8.2828    1.0000 </r>
       <r>    8.8755    1.0000 </r>
       <r>    9.0555    1.0000 </r>
       <r>    9.5981    1.0000 </r>
       <r>   16.8335    0.0000 </r>
       <r>   17.1749    0.0000 </r>
       <r>   19.4471    0.0000 </r>
       <r>   21.3050    0.0000 </r>
       <r>   26.9819    0.0000 </r>
       <r>   28.3992    0.0000 </r>
       <r>   29.0367    0.0000 </r>
       <r>   30.8582    0.0000 </r>
       <r>   36.9261    0.0000 </r>
       <r>   40.3252    0.0000 </r>
       <r>   41.6036    0.0000 </r>
       <r>   43.4105    0.0000 </r>
       <r>   43.9736    0.0000 </r>
      </set>
      <set comment="kpoint 15">
       <r>    5.4105    1.0000 </r>
       <r>    5.6535    1.0000 </r>
       <r>    5.6551    1.0000 </r>
       <r>    6.5995    1.0000 </r>
       <r>    6.9943    1.0000 </r>
       <r>    7.3608    1.0000 </r>
       <r>    7.6560    1.0000 </r>
       <r>    8.6662    1.0000 </r>
       <r>    9.0529    1.0000 </r>
       <r>    9.0817    1.0000 </r>
       <r>   10.7607    0.0000 </r>
       <r>   15.3974    0.0000 </r>
       <r>   18.8160    0.0000 </r>
       <r>   19.4136    0.0000 </r>
       <r>   20.5608    0.0000 </r>
       <r>   24.3225    0.0000 </r>
       <r>   25.5428    0.0000 </r>
       <r>   28.4041    0.0000 </r>
       <r>   30.1170    0.0000 </r>
       <r>   36.5856    0.0000 </r>
       <r>   41.1045    0.0000 </r>
       <r>   43.7154    0.0000 </r>
       <r>   44.9185    0.0000 </r>
       <r>   45.0228    0.0000 </r>
      </set>
      <set comment="kpoint 16">
       <r>    5.5640    1.0000 </r>
       <r>    5.5724    1.0000 </r>
       <r>    5.5809    1.0000 </r>
       <r>    6.8151    1.0000 </r>
       <r>    7.0098    1.0000 </r>
       <r>    7.2599    1.0000 </r>
       <r>    7.7376    1.0000 </r>
       <r>    8.9247    1.0000 </r>
       <r>    9.0517    1.0000 </r>
       <r>    9.0615    1.0000 </r>
       <r>   12.0416    0.0000 </r>
       <r>   13.5366    0.0000 </r>
       <r>   19.9275    0.0000 </r>
       <r>   20.2283    0.0000 </r>
       <r>   20.6072    0.0000 </r>
       <r>   22.6832    0.0000 </r>
       <r>   24.0579    0.0000 </r>
       <r>   28.1954    0.0000 </r>
       <r>   29.8556    0.0000 </r>
       <r>   36.4523    0.0000 </r>
       <r>   41.2463    0.0000 </r>
       <r>   44.5669    0.0000 </r>
       <r>   44.5776    0.0000 </r>
       <r>   46.3128    0.0000 </r>
      </set>
      <set comment="kpoint 17">
       <r>    5.5383    1.0000 </r>
       <r>    5.7140    1.0000 </r>
       <r>    6.0331    1.0000 </r>
       <r>    6.0904    1.0000 </r>
       <r>    6.9347    1.0000 </r>
       <r>    7.3751    1.0000 </r>
       <r>    7.6616    1.0000 </r>
       <r>    8.4521    1.0000 </r>
       <r>    9.0148    1.0000 </r>
       <r>    9.0878    1.0000 </r>
       <r>   10.7605    0.0000 </r>
       <r>   17.1658    0.0000 </r>
       <r>   17.8733    0.0000 </r>
       <r>   18.6988    0.0000 </r>
       <r>   19.9689    0.0000 </r>
       <r>   26.1036    0.0000 </r>
       <r>   26.3297    0.0000 </r>
       <r>   27.1767    0.0000 </r>
       <r>   28.0375    0.0000 </r>
       <r>   39.9338    0.0000 </r>
       <r>   41.6538    0.0000 </r>
       <r>   42.2934    0.0000 </r>
       <r>   44.6216    0.0000 </r>
       <r>   46.5461    0.0000 </r>
      </set>
      <set comment="kpoint 18">
       <r>    5.6400    1.0000 </r>
       <r>    5.8121    1.0000 </r>
       <r>    5.9072    1.0000 </r>
       <r>    6.3931    1.0000 </r>
       <r>    6.9534    1.0000 </r>
       <r>    7.1880    1.0000 </r>
       <r>    7.8199    1.0000 </r>
       <r>    8.7106    1.0000 </r>
       <r>    8.9906    1.0000 </r>
       <r>    9.0362    1.0000 </r>
       <r>   12.4107    0.0000 </r>
       <r>   14.9304    0.0000 </r>
       <r>   17.2410    0.0000 </r>
       <r>   20.6959    0.0000 </r>
       <r>   21.0492    0.0000 </r>
       <r>   23.6943    0.0000 </r>
       <r>   25.0118    0.0000 </r>
       <r>   25.8864    0.0000 </r>
       <r>   27.2593    0.0000 </r>
       <r>   40.3303    0.0000 </r>
       <r>   43.8754    0.0000 </r>
       <r>   44.1088    0.0000 </r>
       <r>   45.8180    0.0000 </r>
       <r>   46.6640    0.0000 </r>
      </set>
      <set comment="kpoint 19">
       <r>    5.6453    1.0000 </r>
       <r>    5.9987    1.0000 </r>
       <r>    5.9987    1.0000 </r>
       <r>    6.2816    1.0000 </r>
       <r>    7.0273    1.0000 </r>
       <r>    7.0273    1.0000 </r>
       <r>    7.9125    1.0000 </r>
       <r>    8.8478    1.0000 </r>
       <r>    8.8478    1.0000 </r>
       <r>    8.9659    1.0000 </r>
       <r>   14.1601    0.0000 </r>
       <r>   14.9154    0.0000 </r>
       <r>   14.9154    0.0000 </r>
       <r>   21.9238    0.0000 </r>
       <r>   22.6452    0.0000 </r>
       <r>   22.6452    0.0000 </r>
       <r>   24.5646    0.0000 </r>
       <r>   25.3337    0.0000 </r>
       <r>   25.3337    0.0000 </r>
       <r>   42.9234    0.0000 </r>
       <r>   44.8681    0.0000 </r>
       <r>   44.8681    0.0000 </r>
       <r>   46.6606    0.0000 </r>
       <r>   46.6606    0.0000 </r>
      </set>
      <set comment="kpoint 20">
       <r>    1.2604    1.0000 </r>
       <r>    4.8050    1.0000 </r>
       <r>    7.2203    1.0000 </r>
       <r>    7.2268    1.0000 </r>
       <r>    7.2268    1.0000 </r>
       <r>    7.5247    1.0000 </r>
       <r>    7.5247    1.0000 </r>
       <r>    7.9839    1.0000 </r>
       <r>    7.9839    1.0000 </r>
       <r>    8.9394    1.0000 </r>
       <r>    8.9394    1.0000 </r>
       <r>    9.1912    1.0000 </r>
       <r>   16.8925    0.0000 </r>
       <r>   31.4890    0.0000 </r>
       <r>   33.7051    0.0000 </r>
       <r>   33.9253    0.0000 </r>
       <r>   33.9253    0.0000 </r>
       <r>   34.2563    0.0000 </r>
       <r>   35.2226    0.0000 </r>
       <r>   35.2226    0.0000 </r>
       <r>   39.4501    0.0000 </r>
       <r>   39.4501    0.0000 </r>
       <r>   40.9851    0.0000 </r>
       <r>   41.5543    0.0000 </r>
      </set>
      <set comment="kpoint 21">
       <r>    1.4955    1.0000 </r>
       <r>    4.9527    1.0000 </r>
       <r>    7.0445    1.0000 </r>
       <r>    7.3227    1.0000 </r>
       <r>    7.3392    1.0000 </r>
       <r>    7.4253    1.0000 </r>
       <r>    7.6153    1.0000 </r>
       <r>    7.8800    1.0000 </r>
       <r>    7.9358    1.0000 </r>
       <r>    8.1654    1.0000 </r>
       <r>    8.9639    1.0000 </r>
       <r>   10.2629    0.0000 </r>
       <r>   16.9870    0.0000 </r>
       <r>   29.6518    0.0000 </r>
       <r>   31.8695    0.0000 </r>
       <r>   31.8784    0.0000 </r>
       <r>   33.7336    0.0000 </r>
       <r>   34.7173    0.0000 </r>
       <r>   36.5901    0.0000 </r>
       <r>   37.4035    0.0000 </r>
       <r>   38.6243    0.0000 </r>
       <r>   38.8728    0.0000 </r>
       <r>   39.3752    0.0000 </r>
       <r>   41.2056    0.0000 </r>
      </set>
      <set comment="kpoint 22">
       <r>    2.1741    1.0000 </r>
       <r>    5.3218    1.0000 </r>
       <r>    6.8046    1.0000 </r>
       <r>    6.9422    1.0000 </r>
       <r>    7.3101    1.0000 </r>
       <r>    7.5253    1.0000 </r>
       <r>    7.6584    1.0000 </r>
       <r>    7.8211    1.0000 </r>
       <r>    7.9358    1.0000 </r>
       <r>    8.0170    1.0000 </r>
       <r>    9.0158    1.0000 </r>
       <r>   11.5798    0.0000 </r>
       <r>   17.3022    0.0000 </r>
       <r>   25.8785    0.0000 </r>
       <r>   29.5669    0.0000 </r>
       <r>   30.7011    0.0000 </r>
       <r>   32.3943    0.0000 </r>
       <r>   33.9714    0.0000 </r>
       <r>   36.1098    0.0000 </r>
       <r>   37.0239    0.0000 </r>
       <r>   37.8507    0.0000 </r>
       <r>   38.7888    0.0000 </r>
       <r>   40.1538    0.0000 </r>
       <r>   42.0476    0.0000 </r>
      </set>
      <set comment="kpoint 23">
       <r>    3.1927    1.0000 </r>
       <r>    5.6249    1.0000 </r>
       <r>    6.3263    1.0000 </r>
       <r>    6.6650    1.0000 </r>
       <r>    7.1872    1.0000 </r>
       <r>    7.4770    1.0000 </r>
       <r>    7.6921    1.0000 </r>
       <r>    8.1514    1.0000 </r>
       <r>    8.2024    1.0000 </r>
       <r>    8.2774    1.0000 </r>
       <r>    9.0651    1.0000 </r>
       <r>   12.9617    0.0000 </r>
       <r>   17.8955    0.0000 </r>
       <r>   22.2235    0.0000 </r>
       <r>   27.5655    0.0000 </r>
       <r>   28.2063    0.0000 </r>
       <r>   30.6486    0.0000 </r>
       <r>   33.4895    0.0000 </r>
       <r>   33.9556    0.0000 </r>
       <r>   35.5902    0.0000 </r>
       <r>   37.3854    0.0000 </r>
       <r>   39.5710    0.0000 </r>
       <r>   39.7214    0.0000 </r>
       <r>   44.3273    0.0000 </r>
      </set>
      <set comment="kpoint 24">
       <r>    4.2687    1.0000 </r>
       <r>    5.5564    1.0000 </r>
       <r>    5.9244    1.0000 </r>
       <r>    6.6522    1.0000 </r>
       <r>    7.3273    1.0000 </r>
       <r>    7.3365    1.0000 </r>
       <r>    7.7383    1.0000 </r>
       <r>    8.6018    1.0000 </r>
       <r>    8.6705    1.0000 </r>
       <r>    8.7553    1.0000 </r>
       <r>    9.1031    1.0000 </r>
       <r>   14.2864    0.0000 </r>
       <r>   18.2072    0.0000 </r>
       <r>   19.6664    0.0000 </r>
       <r>   25.2391    0.0000 </r>
       <r>   25.9829    0.0000 </r>
       <r>   28.7599    0.0000 </r>
       <r>   32.0818    0.0000 </r>
       <r>   32.7343    0.0000 </r>
       <r>   34.2955    0.0000 </r>
       <r>   38.3015    0.0000 </r>
       <r>   38.8736    0.0000 </r>
       <r>   40.6146    0.0000 </r>
       <r>   45.6525    0.0000 </r>
      </set>
      <set comment="kpoint 25">
       <r>    4.8890    1.0000 </r>
       <r>    5.3469    1.0000 </r>
       <r>    5.7994    1.0000 </r>
       <r>    6.6657    1.0000 </r>
       <r>    7.2158    1.0000 </r>
       <r>    7.5872    1.0000 </r>
       <r>    7.9582    1.0000 </r>
       <r>    8.9261    1.0000 </r>
       <r>    8.9940    1.0000 </r>
       <r>    9.1476    1.0000 </r>
       <r>    9.8002    0.5468 </r>
       <r>   14.3100    0.0000 </r>
       <r>   17.3544    0.0000 </r>
       <r>   20.0833    0.0000 </r>
       <r>   23.0906    0.0000 </r>
       <r>   24.9467    0.0000 </r>
       <r>   26.2394    0.0000 </r>
       <r>   31.5049    0.0000 </r>
       <r>   32.0669    0.0000 </r>
       <r>   33.3894    0.0000 </r>
       <r>   38.3978    0.0000 </r>
       <r>   39.4968    0.0000 </r>
       <r>   41.3294    0.0000 </r>
       <r>   45.4199    0.0000 </r>
      </set>
      <set comment="kpoint 26">
       <r>    5.0218    1.0000 </r>
       <r>    5.2427    1.0000 </r>
       <r>    5.7947    1.0000 </r>
       <r>    6.6871    1.0000 </r>
       <r>    7.1756    1.0000 </r>
       <r>    7.6655    1.0000 </r>
       <r>    8.1245    1.0000 </r>
       <r>    9.0128    1.0000 </r>
       <r>    9.1195    1.0000 </r>
       <r>    9.1991    1.0000 </r>
       <r>   10.9431    0.0000 </r>
       <r>   12.9001    0.0000 </r>
       <r>   18.7104    0.0000 </r>
       <r>   19.0516    0.0000 </r>
       <r>   23.4745    0.0000 </r>
       <r>   24.3449    0.0000 </r>
       <r>   24.5826    0.0000 </r>
       <r>   31.3705    0.0000 </r>
       <r>   31.8309    0.0000 </r>
       <r>   33.0640    0.0000 </r>
       <r>   38.2477    0.0000 </r>
       <r>   40.1211    0.0000 </r>
       <r>   41.6114    0.0000 </r>
       <r>   44.7671    0.0000 </r>
      </set>
      <set comment="kpoint 27">
       <r>    1.9532    1.0000 </r>
       <r>    5.2171    1.0000 </r>
       <r>    6.8560    1.0000 </r>
       <r>    7.1151    1.0000 </r>
       <r>    7.3783    1.0000 </r>
       <r>    7.4750    1.0000 </r>
       <r>    7.6048    1.0000 </r>
       <r>    7.7536    1.0000 </r>
       <r>    7.9401    1.0000 </r>
       <r>    8.0348    1.0000 </r>
       <r>    8.9950    1.0000 </r>
       <r>   11.2202    0.0000 </r>
       <r>   17.1936    0.0000 </r>
       <r>   27.6147    0.0000 </r>
       <r>   28.2820    0.0000 </r>
       <r>   32.9363    0.0000 </r>
       <r>   33.0756    0.0000 </r>
       <r>   34.1197    0.0000 </r>
       <r>   35.6344    0.0000 </r>
       <r>   36.0412    0.0000 </r>
       <r>   39.0000    0.0000 </r>
       <r>   39.4095    0.0000 </r>
       <r>   40.9648    0.0000 </r>
       <r>   41.1660    0.0000 </r>
      </set>
      <set comment="kpoint 28">
       <r>    2.8112    1.0000 </r>
       <r>    5.6007    1.0000 </r>
       <r>    6.5375    1.0000 </r>
       <r>    6.6188    1.0000 </r>
       <r>    7.2507    1.0000 </r>
       <r>    7.4397    1.0000 </r>
       <r>    7.6966    1.0000 </r>
       <r>    7.9120    1.0000 </r>
       <r>    8.1264    1.0000 </r>
       <r>    8.2494    1.0000 </r>
       <r>    9.0358    1.0000 </r>
       <r>   12.4814    0.0000 </r>
       <r>   17.6671    0.0000 </r>
       <r>   24.0975    0.0000 </r>
       <r>   26.2846    0.0000 </r>
       <r>   30.0762    0.0000 </r>
       <r>   32.1956    0.0000 </r>
       <r>   33.0738    0.0000 </r>
       <r>   35.2909    0.0000 </r>
       <r>   35.9866    0.0000 </r>
       <r>   36.9377    0.0000 </r>
       <r>   38.8846    0.0000 </r>
       <r>   41.5255    0.0000 </r>
       <r>   42.6188    0.0000 </r>
      </set>
      <set comment="kpoint 29">
       <r>    3.8994    1.0000 </r>
       <r>    5.7315    1.0000 </r>
       <r>    6.0575    1.0000 </r>
       <r>    6.5518    1.0000 </r>
       <r>    7.1614    1.0000 </r>
       <r>    7.4188    1.0000 </r>
       <r>    7.6393    1.0000 </r>
       <r>    8.2230    1.0000 </r>
       <r>    8.5211    1.0000 </r>
       <r>    8.7266    1.0000 </r>
       <r>    9.0984    1.0000 </r>
       <r>   13.8364    0.0000 </r>
       <r>   18.3948    0.0000 </r>
       <r>   20.7071    0.0000 </r>
       <r>   24.7884    0.0000 </r>
       <r>   26.9164    0.0000 </r>
       <r>   30.6451    0.0000 </r>
       <r>   31.1351    0.0000 </r>
       <r>   34.1154    0.0000 </r>
       <r>   35.1934    0.0000 </r>
       <r>   36.9901    0.0000 </r>
       <r>   39.6515    0.0000 </r>
       <r>   42.3089    0.0000 </r>
       <r>   43.6229    0.0000 </r>
      </set>
      <set comment="kpoint 30">
       <r>    4.7915    1.0000 </r>
       <r>    5.5429    1.0000 </r>
       <r>    5.8293    1.0000 </r>
       <r>    6.5853    1.0000 </r>
       <r>    7.1923    1.0000 </r>
       <r>    7.5060    1.0000 </r>
       <r>    7.6893    1.0000 </r>
       <r>    8.6607    1.0000 </r>
       <r>    8.9068    1.0000 </r>
       <r>    9.0127    1.0000 </r>
       <r>    9.5837    1.0000 </r>
       <r>   14.8861    0.0000 </r>
       <r>   17.5834    0.0000 </r>
       <r>   19.9733    0.0000 </r>
       <r>   23.5267    0.0000 </r>
       <r>   24.2694    0.0000 </r>
       <r>   27.8526    0.0000 </r>
       <r>   30.2561    0.0000 </r>
       <r>   33.4167    0.0000 </r>
       <r>   34.0584    0.0000 </r>
       <r>   37.7161    0.0000 </r>
       <r>   40.3256    0.0000 </r>
       <r>   42.7049    0.0000 </r>
       <r>   45.7351    0.0000 </r>
      </set>
      <set comment="kpoint 31">
       <r>    5.0897    1.0000 </r>
       <r>    5.3686    1.0000 </r>
       <r>    5.8300    1.0000 </r>
       <r>    6.6381    1.0000 </r>
       <r>    7.1192    1.0000 </r>
       <r>    7.6831    1.0000 </r>
       <r>    7.8681    1.0000 </r>
       <r>    8.9722    1.0000 </r>
       <r>    9.0719    1.0000 </r>
       <r>    9.1081    1.0000 </r>
       <r>   10.8281    0.0000 </r>
       <r>   13.6262    0.0000 </r>
       <r>   18.1244    0.0000 </r>
       <r>   19.9163    0.0000 </r>
       <r>   22.8131    0.0000 </r>
       <r>   23.4147    0.0000 </r>
       <r>   25.3499    0.0000 </r>
       <r>   29.7965    0.0000 </r>
       <r>   33.1246    0.0000 </r>
       <r>   33.4346    0.0000 </r>
       <r>   38.0058    0.0000 </r>
       <r>   41.3607    0.0000 </r>
       <r>   42.5310    0.0000 </r>
       <r>   45.2015    0.0000 </r>
      </set>
      <set comment="kpoint 32">
       <r>    3.7677    1.0000 </r>
       <r>    5.9109    1.0000 </r>
       <r>    6.1470    1.0000 </r>
       <r>    6.3390    1.0000 </r>
       <r>    7.1708    1.0000 </r>
       <r>    7.3325    1.0000 </r>
       <r>    7.6589    1.0000 </r>
       <r>    8.0332    1.0000 </r>
       <r>    8.5299    1.0000 </r>
       <r>    8.7252    1.0000 </r>
       <r>    9.0953    1.0000 </r>
       <r>   13.6788    0.0000 </r>
       <r>   18.3642    0.0000 </r>
       <r>   22.4122    0.0000 </r>
       <r>   22.8331    0.0000 </r>
       <r>   28.5591    0.0000 </r>
       <r>   29.2362    0.0000 </r>
       <r>   32.7215    0.0000 </r>
       <r>   33.2688    0.0000 </r>
       <r>   36.5251    0.0000 </r>
       <r>   37.4543    0.0000 </r>
       <r>   39.2351    0.0000 </r>
       <r>   43.1647    0.0000 </r>
       <r>   43.2495    0.0000 </r>
      </set>
      <set comment="kpoint 33">
       <r>    4.7833    1.0000 </r>
       <r>    5.8249    1.0000 </r>
       <r>    5.9111    1.0000 </r>
       <r>    6.3331    1.0000 </r>
       <r>    7.0757    1.0000 </r>
       <r>    7.4746    1.0000 </r>
       <r>    7.5035    1.0000 </r>
       <r>    8.2971    1.0000 </r>
       <r>    8.9267    1.0000 </r>
       <r>    8.9287    1.0000 </r>
       <r>    9.6534    1.0000 </r>
       <r>   15.0106    0.0000 </r>
       <r>   18.8341    0.0000 </r>
       <r>   19.9391    0.0000 </r>
       <r>   21.4779    0.0000 </r>
       <r>   25.7919    0.0000 </r>
       <r>   27.9133    0.0000 </r>
       <r>   29.8154    0.0000 </r>
       <r>   32.1409    0.0000 </r>
       <r>   36.9204    0.0000 </r>
       <r>   38.4679    0.0000 </r>
       <r>   41.2836    0.0000 </r>
       <r>   43.0723    0.0000 </r>
       <r>   45.1565    0.0000 </r>
      </set>
      <set comment="kpoint 34">
       <r>    5.3006    1.0000 </r>
       <r>    5.6924    1.0000 </r>
       <r>    5.8340    1.0000 </r>
       <r>    6.4595    1.0000 </r>
       <r>    7.0490    1.0000 </r>
       <r>    7.4415    1.0000 </r>
       <r>    7.6893    1.0000 </r>
       <r>    8.6595    1.0000 </r>
       <r>    8.9398    1.0000 </r>
       <r>    9.1183    1.0000 </r>
       <r>   10.8101    0.0000 </r>
       <r>   15.1357    0.0000 </r>
       <r>   17.7737    0.0000 </r>
       <r>   20.4775    0.0000 </r>
       <r>   20.8487    0.0000 </r>
       <r>   23.5755    0.0000 </r>
       <r>   26.9003    0.0000 </r>
       <r>   27.3352    0.0000 </r>
       <r>   31.4595    0.0000 </r>
       <r>   36.6390    0.0000 </r>
       <r>   39.6078    0.0000 </r>
       <r>   41.9995    0.0000 </r>
       <r>   45.3963    0.0000 </r>
       <r>   45.7571    0.0000 </r>
      </set>
      <set comment="kpoint 35">
       <r>    5.3382    1.0000 </r>
       <r>    5.6073    1.0000 </r>
       <r>    5.9233    1.0000 </r>
       <r>    6.5344    1.0000 </r>
       <r>    6.9887    1.0000 </r>
       <r>    7.5096    1.0000 </r>
       <r>    7.7748    1.0000 </r>
       <r>    8.9226    1.0000 </r>
       <r>    8.9245    1.0000 </r>
       <r>    9.0966    1.0000 </r>
       <r>   12.1047    0.0000 </r>
       <r>   13.5197    0.0000 </r>
       <r>   19.2560    0.0000 </r>
       <r>   19.6165    0.0000 </r>
       <r>   20.4059    0.0000 </r>
       <r>   23.9078    0.0000 </r>
       <r>   25.0429    0.0000 </r>
       <r>   27.0661    0.0000 </r>
       <r>   31.2190    0.0000 </r>
       <r>   36.5125    0.0000 </r>
       <r>   40.1567    0.0000 </r>
       <r>   42.0332    0.0000 </r>
       <r>   45.1085    0.0000 </r>
       <r>   45.8894    0.0000 </r>
      </set>
      <set comment="kpoint 36">
       <r>    5.5430    1.0000 </r>
       <r>    5.6824    1.0000 </r>
       <r>    6.0877    1.0000 </r>
       <r>    6.1384    1.0000 </r>
       <r>    7.0309    1.0000 </r>
       <r>    7.2937    1.0000 </r>
       <r>    7.6561    1.0000 </r>
       <r>    8.4702    1.0000 </r>
       <r>    8.8958    1.0000 </r>
       <r>    9.1257    1.0000 </r>
       <r>   10.8333    0.0000 </r>
       <r>   16.2008    0.0000 </r>
       <r>   18.0323    0.0000 </r>
       <r>   18.7264    0.0000 </r>
       <r>   21.1098    0.0000 </r>
       <r>   24.9537    0.0000 </r>
       <r>   25.1065    0.0000 </r>
       <r>   28.8131    0.0000 </r>
       <r>   29.3679    0.0000 </r>
       <r>   39.3911    0.0000 </r>
       <r>   40.7712    0.0000 </r>
       <r>   41.6600    0.0000 </r>
       <r>   44.4601    0.0000 </r>
       <r>   45.2245    0.0000 </r>
      </set>
      <set comment="kpoint 37">
       <r>    5.5977    1.0000 </r>
       <r>    5.8921    1.0000 </r>
       <r>    5.9820    1.0000 </r>
       <r>    6.3228    1.0000 </r>
       <r>    6.9837    1.0000 </r>
       <r>    7.1850    1.0000 </r>
       <r>    7.8217    1.0000 </r>
       <r>    8.7229    1.0000 </r>
       <r>    8.8658    1.0000 </r>
       <r>    9.0630    1.0000 </r>
       <r>   12.5193    0.0000 </r>
       <r>   14.9592    0.0000 </r>
       <r>   17.2840    0.0000 </r>
       <r>   19.4880    0.0000 </r>
       <r>   21.3163    0.0000 </r>
       <r>   23.5534    0.0000 </r>
       <r>   24.9537    0.0000 </r>
       <r>   26.4782    0.0000 </r>
       <r>   28.7190    0.0000 </r>
       <r>   40.1918    0.0000 </r>
       <r>   41.8743    0.0000 </r>
       <r>   43.2735    0.0000 </r>
       <r>   44.8419    0.0000 </r>
       <r>   46.0903    0.0000 </r>
      </set>
      <set comment="kpoint 38">
       <r>    5.6976    1.0000 </r>
       <r>    6.0109    1.0000 </r>
       <r>    6.0109    1.0000 </r>
       <r>    6.2932    1.0000 </r>
       <r>    7.0134    1.0000 </r>
       <r>    7.0134    1.0000 </r>
       <r>    7.8963    1.0000 </r>
       <r>    8.8343    1.0000 </r>
       <r>    8.8705    1.0000 </r>
       <r>    8.8705    1.0000 </r>
       <r>   14.3842    0.0000 </r>
       <r>   14.9644    0.0000 </r>
       <r>   14.9644    0.0000 </r>
       <r>   20.9988    0.0000 </r>
       <r>   21.7077    0.0000 </r>
       <r>   21.7077    0.0000 </r>
       <r>   25.7141    0.0000 </r>
       <r>   26.5616    0.0000 </r>
       <r>   26.5616    0.0000 </r>
       <r>   42.0066    0.0000 </r>
       <r>   43.7978    0.0000 </r>
       <r>   43.7978    0.0000 </r>
       <r>   45.2888    0.0000 </r>
       <r>   45.4394    0.0000 </r>
      </set>
      <set comment="kpoint 39">
       <r>    1.7141    1.0000 </r>
       <r>    4.6391    1.0000 </r>
       <r>    7.1189    1.0000 </r>
       <r>    7.1669    1.0000 </r>
       <r>    7.1669    1.0000 </r>
       <r>    7.4213    1.0000 </r>
       <r>    7.4213    1.0000 </r>
       <r>    8.0558    1.0000 </r>
       <r>    8.1955    1.0000 </r>
       <r>    8.1955    1.0000 </r>
       <r>    8.9017    1.0000 </r>
       <r>    8.9017    1.0000 </r>
       <r>   19.0190    0.0000 </r>
       <r>   30.5608    0.0000 </r>
       <r>   31.8934    0.0000 </r>
       <r>   33.5642    0.0000 </r>
       <r>   34.3376    0.0000 </r>
       <r>   34.3376    0.0000 </r>
       <r>   35.3677    0.0000 </r>
       <r>   35.3677    0.0000 </r>
       <r>   38.6542    0.0000 </r>
       <r>   38.6542    0.0000 </r>
       <r>   40.0578    0.0000 </r>
       <r>   40.0578    0.0000 </r>
      </set>
      <set comment="kpoint 40">
       <r>    1.9424    1.0000 </r>
       <r>    4.8085    1.0000 </r>
       <r>    7.0530    1.0000 </r>
       <r>    7.1430    1.0000 </r>
       <r>    7.1886    1.0000 </r>
       <r>    7.2534    1.0000 </r>
       <r>    7.5102    1.0000 </r>
       <r>    7.7602    1.0000 </r>
       <r>    8.1642    1.0000 </r>
       <r>    8.2058    1.0000 </r>
       <r>    8.9159    1.0000 </r>
       <r>    9.4749    1.0000 </r>
       <r>   19.1596    0.0000 </r>
       <r>   29.8854    0.0000 </r>
       <r>   30.8629    0.0000 </r>
       <r>   32.0519    0.0000 </r>
       <r>   32.3272    0.0000 </r>
       <r>   33.7648    0.0000 </r>
       <r>   35.7121    0.0000 </r>
       <r>   36.5851    0.0000 </r>
       <r>   38.2932    0.0000 </r>
       <r>   39.3641    0.0000 </r>
       <r>   39.5908    0.0000 </r>
       <r>   41.6245    0.0000 </r>
      </set>
      <set comment="kpoint 41">
       <r>    2.5945    1.0000 </r>
       <r>    5.2440    1.0000 </r>
       <r>    6.6317    1.0000 </r>
       <r>    6.8605    1.0000 </r>
       <r>    7.1104    1.0000 </r>
       <r>    7.4517    1.0000 </r>
       <r>    7.5689    1.0000 </r>
       <r>    7.7559    1.0000 </r>
       <r>    8.1397    1.0000 </r>
       <r>    8.2637    1.0000 </r>
       <r>    8.9454    1.0000 </r>
       <r>   10.4088    0.0000 </r>
       <r>   19.5936    0.0000 </r>
       <r>   26.2622    0.0000 </r>
       <r>   29.7546    0.0000 </r>
       <r>   30.0925    0.0000 </r>
       <r>   31.5393    0.0000 </r>
       <r>   32.1346    0.0000 </r>
       <r>   34.8362    0.0000 </r>
       <r>   35.1986    0.0000 </r>
       <r>   39.1190    0.0000 </r>
       <r>   40.4015    0.0000 </r>
       <r>   40.5901    0.0000 </r>
       <r>   42.8849    0.0000 </r>
      </set>
      <set comment="kpoint 42">
       <r>    3.5401    1.0000 </r>
       <r>    5.6244    1.0000 </r>
       <r>    6.1591    1.0000 </r>
       <r>    6.7295    1.0000 </r>
       <r>    7.0387    1.0000 </r>
       <r>    7.5392    1.0000 </r>
       <r>    7.6310    1.0000 </r>
       <r>    8.1181    1.0000 </r>
       <r>    8.3134    1.0000 </r>
       <r>    8.4055    1.0000 </r>
       <r>    8.9766    1.0000 </r>
       <r>   11.4282    0.0000 </r>
       <r>   20.2928    0.0000 </r>
       <r>   22.6498    0.0000 </r>
       <r>   26.7460    0.0000 </r>
       <r>   28.1562    0.0000 </r>
       <r>   31.1176    0.0000 </r>
       <r>   31.9360    0.0000 </r>
       <r>   33.6577    0.0000 </r>
       <r>   33.9534    0.0000 </r>
       <r>   36.7758    0.0000 </r>
       <r>   41.0946    0.0000 </r>
       <r>   41.5889    0.0000 </r>
       <r>   45.2952    0.0000 </r>
      </set>
      <set comment="kpoint 43">
       <r>    4.4317    1.0000 </r>
       <r>    5.5414    1.0000 </r>
       <r>    5.9649    1.0000 </r>
       <r>    6.5660    1.0000 </r>
       <r>    7.3321    1.0000 </r>
       <r>    7.4717    1.0000 </r>
       <r>    8.0778    1.0000 </r>
       <r>    8.5047    1.0000 </r>
       <r>    8.6569    1.0000 </r>
       <r>    8.7002    1.0000 </r>
       <r>    9.0248    1.0000 </r>
       <r>   12.5077    0.0000 </r>
       <r>   19.1926    0.0000 </r>
       <r>   21.2697    0.0000 </r>
       <r>   23.9964    0.0000 </r>
       <r>   26.6267    0.0000 </r>
       <r>   30.0182    0.0000 </r>
       <r>   31.8675    0.0000 </r>
       <r>   32.3741    0.0000 </r>
       <r>   32.6956    0.0000 </r>
       <r>   36.0425    0.0000 </r>
       <r>   41.0518    0.0000 </r>
       <r>   41.8206    0.0000 </r>
       <r>   44.9515    0.0000 </r>
      </set>
      <set comment="kpoint 44">
       <r>    4.8185    1.0000 </r>
       <r>    5.3583    1.0000 </r>
       <r>    6.0274    1.0000 </r>
       <r>    6.3565    1.0000 </r>
       <r>    7.3933    1.0000 </r>
       <r>    7.6533    1.0000 </r>
       <r>    8.7004    1.0000 </r>
       <r>    8.7256    1.0000 </r>
       <r>    8.9773    1.0000 </r>
       <r>    9.1240    1.0000 </r>
       <r>    9.5747    1.0000 </r>
       <r>   13.2043    0.0000 </r>
       <r>   17.1314    0.0000 </r>
       <r>   19.9439    0.0000 </r>
       <r>   24.0083    0.0000 </r>
       <r>   25.6277    0.0000 </r>
       <r>   28.0952    0.0000 </r>
       <r>   31.5132    0.0000 </r>
       <r>   31.5708    0.0000 </r>
       <r>   31.7901    0.0000 </r>
       <r>   37.1322    0.0000 </r>
       <r>   40.5962    0.0000 </r>
       <r>   41.1192    0.0000 </r>
       <r>   43.6244    0.0000 </r>
      </set>
      <set comment="kpoint 45">
       <r>    4.8705    1.0000 </r>
       <r>    5.2874    1.0000 </r>
       <r>    6.1583    1.0000 </r>
       <r>    6.2047    1.0000 </r>
       <r>    7.3626    1.0000 </r>
       <r>    7.7565    1.0000 </r>
       <r>    8.7752    1.0000 </r>
       <r>    8.8741    1.0000 </r>
       <r>    9.1113    1.0000 </r>
       <r>    9.1870    1.0000 </r>
       <r>   10.7081    0.0000 </r>
       <r>   12.6237    0.0000 </r>
       <r>   17.7380    0.0000 </r>
       <r>   17.8751    0.0000 </r>
       <r>   25.2774    0.0000 </r>
       <r>   25.5202    0.0000 </r>
       <r>   26.2143    0.0000 </r>
       <r>   31.2084    0.0000 </r>
       <r>   31.4644    0.0000 </r>
       <r>   31.5329    0.0000 </r>
       <r>   38.3823    0.0000 </r>
       <r>   39.7357    0.0000 </r>
       <r>   40.4385    0.0000 </r>
       <r>   43.4786    0.0000 </r>
      </set>
      <set comment="kpoint 46">
       <r>    2.3838    1.0000 </r>
       <r>    5.1175    1.0000 </r>
       <r>    6.7822    1.0000 </r>
       <r>    6.9014    1.0000 </r>
       <r>    7.1336    1.0000 </r>
       <r>    7.4134    1.0000 </r>
       <r>    7.5698    1.0000 </r>
       <r>    7.6763    1.0000 </r>
       <r>    8.1908    1.0000 </r>
       <r>    8.2034    1.0000 </r>
       <r>    8.9357    1.0000 </r>
       <r>   10.1511    0.0000 </r>
       <r>   19.4491    0.0000 </r>
       <r>   27.9447    0.0000 </r>
       <r>   28.6907    0.0000 </r>
       <r>   30.9704    0.0000 </r>
       <r>   31.7179    0.0000 </r>
       <r>   33.3721    0.0000 </r>
       <r>   34.5211    0.0000 </r>
       <r>   36.0151    0.0000 </r>
       <r>   39.3356    0.0000 </r>
       <r>   39.7173    0.0000 </r>
       <r>   41.0625    0.0000 </r>
       <r>   41.9544    0.0000 </r>
      </set>
      <set comment="kpoint 47">
       <r>    3.1956    1.0000 </r>
       <r>    5.5881    1.0000 </r>
       <r>    6.2938    1.0000 </r>
       <r>    6.6859    1.0000 </r>
       <r>    7.0792    1.0000 </r>
       <r>    7.4520    1.0000 </r>
       <r>    7.5674    1.0000 </r>
       <r>    7.9597    1.0000 </r>
       <r>    8.2930    1.0000 </r>
       <r>    8.3475    1.0000 </r>
       <r>    8.9709    1.0000 </r>
       <r>   11.0752    0.0000 </r>
       <r>   20.0437    0.0000 </r>
       <r>   24.5061    0.0000 </r>
       <r>   26.7017    0.0000 </r>
       <r>   28.6470    0.0000 </r>
       <r>   30.6628    0.0000 </r>
       <r>   32.7161    0.0000 </r>
       <r>   33.8182    0.0000 </r>
       <r>   36.7807    0.0000 </r>
       <r>   37.6621    0.0000 </r>
       <r>   38.7566    0.0000 </r>
       <r>   42.2272    0.0000 </r>
       <r>   43.0277    0.0000 </r>
      </set>
      <set comment="kpoint 48">
       <r>    4.1634    1.0000 </r>
       <r>    5.7373    1.0000 </r>
       <r>    5.9895    1.0000 </r>
       <r>    6.6279    1.0000 </r>
       <r>    7.0587    1.0000 </r>
       <r>    7.5293    1.0000 </r>
       <r>    7.6132    1.0000 </r>
       <r>    8.2681    1.0000 </r>
       <r>    8.5898    1.0000 </r>
       <r>    8.6559    1.0000 </r>
       <r>    9.0830    1.0000 </r>
       <r>   12.1362    0.0000 </r>
       <r>   20.5470    0.0000 </r>
       <r>   21.3898    0.0000 </r>
       <r>   25.0140    0.0000 </r>
       <r>   25.7421    0.0000 </r>
       <r>   29.6841    0.0000 </r>
       <r>   31.9108    0.0000 </r>
       <r>   33.5242    0.0000 </r>
       <r>   35.5863    0.0000 </r>
       <r>   36.1255    0.0000 </r>
       <r>   39.1646    0.0000 </r>
       <r>   43.8570    0.0000 </r>
       <r>   44.4699    0.0000 </r>
      </set>
      <set comment="kpoint 49">
       <r>    4.8170    1.0000 </r>
       <r>    5.5423    1.0000 </r>
       <r>    5.9554    1.0000 </r>
       <r>    6.4847    1.0000 </r>
       <r>    7.2316    1.0000 </r>
       <r>    7.6027    1.0000 </r>
       <r>    8.0527    1.0000 </r>
       <r>    8.5647    1.0000 </r>
       <r>    8.8072    1.0000 </r>
       <r>    9.0082    1.0000 </r>
       <r>    9.5902    1.0000 </r>
       <r>   13.2227    0.0000 </r>
       <r>   18.0176    0.0000 </r>
       <r>   21.1189    0.0000 </r>
       <r>   23.4937    0.0000 </r>
       <r>   24.4616    0.0000 </r>
       <r>   28.8611    0.0000 </r>
       <r>   29.6979    0.0000 </r>
       <r>   33.5256    0.0000 </r>
       <r>   34.5589    0.0000 </r>
       <r>   36.1094    0.0000 </r>
       <r>   39.2762    0.0000 </r>
       <r>   43.6792    0.0000 </r>
       <r>   44.8331    0.0000 </r>
      </set>
      <set comment="kpoint 50">
       <r>    4.9608    1.0000 </r>
       <r>    5.4147    1.0000 </r>
       <r>    6.1200    1.0000 </r>
       <r>    6.3015    1.0000 </r>
       <r>    7.1820    1.0000 </r>
       <r>    7.8225    1.0000 </r>
       <r>    8.3864    1.0000 </r>
       <r>    8.7185    1.0000 </r>
       <r>    9.0335    1.0000 </r>
       <r>    9.1690    1.0000 </r>
       <r>   10.8032    0.0000 </r>
       <r>   13.2006    0.0000 </r>
       <r>   17.2196    0.0000 </r>
       <r>   18.9515    0.0000 </r>
       <r>   23.6254    0.0000 </r>
       <r>   25.0302    0.0000 </r>
       <r>   27.3322    0.0000 </r>
       <r>   28.4113    0.0000 </r>
       <r>   33.3027    0.0000 </r>
       <r>   33.9801    0.0000 </r>
       <r>   37.3144    0.0000 </r>
       <r>   38.7777    0.0000 </r>
       <r>   42.1430    0.0000 </r>
       <r>   44.8482    0.0000 </r>
      </set>
      <set comment="kpoint 51">
       <r>    4.0684    1.0000 </r>
       <r>    5.9140    1.0000 </r>
       <r>    6.0604    1.0000 </r>
       <r>    6.4246    1.0000 </r>
       <r>    7.0942    1.0000 </r>
       <r>    7.3144    1.0000 </r>
       <r>    7.5567    1.0000 </r>
       <r>    8.1651    1.0000 </r>
       <r>    8.5756    1.0000 </r>
       <r>    8.6715    1.0000 </r>
       <r>    9.1274    1.0000 </r>
       <r>   12.0257    0.0000 </r>
       <r>   20.7934    0.0000 </r>
       <r>   22.8267    0.0000 </r>
       <r>   23.3185    0.0000 </r>
       <r>   27.1229    0.0000 </r>
       <r>   27.6741    0.0000 </r>
       <r>   32.9575    0.0000 </r>
       <r>   34.7643    0.0000 </r>
       <r>   35.8030    0.0000 </r>
       <r>   37.4861    0.0000 </r>
       <r>   39.1295    0.0000 </r>
       <r>   41.9899    0.0000 </r>
       <r>   42.6206    0.0000 </r>
      </set>
      <set comment="kpoint 52">
       <r>    4.9094    1.0000 </r>
       <r>    5.7271    1.0000 </r>
       <r>    6.0418    1.0000 </r>
       <r>    6.4786    1.0000 </r>
       <r>    7.0780    1.0000 </r>
       <r>    7.3769    1.0000 </r>
       <r>    7.5573    1.0000 </r>
       <r>    8.3648    1.0000 </r>
       <r>    8.6992    1.0000 </r>
       <r>    9.0378    1.0000 </r>
       <r>    9.7608    0.8910 </r>
       <r>   13.2312    0.0000 </r>
       <r>   19.6434    0.0000 </r>
       <r>   21.6425    0.0000 </r>
       <r>   22.0449    0.0000 </r>
       <r>   24.5368    0.0000 </r>
       <r>   26.4109    0.0000 </r>
       <r>   31.6547    0.0000 </r>
       <r>   33.8122    0.0000 </r>
       <r>   35.6995    0.0000 </r>
       <r>   37.6046    0.0000 </r>
       <r>   40.3238    0.0000 </r>
       <r>   42.5803    0.0000 </r>
       <r>   44.0460    0.0000 </r>
      </set>
      <set comment="kpoint 53">
       <r>    5.2199    1.0000 </r>
       <r>    5.7459    1.0000 </r>
       <r>    5.9801    1.0000 </r>
       <r>    6.4670    1.0000 </r>
       <r>    6.9870    1.0000 </r>
       <r>    7.5814    1.0000 </r>
[...]
       </set>
       <set comment="band 12">
        <r>  0.0076  0.0643  0.0153  0.1870  0.0859  0.0059  0.0119  0.0066  0.2014 </r>
        <r>  0.0015  0.0130  0.0759  0.0378  0.0173  0.0291  0.0024  0.0326  0.0407 </r>
       </set>
       <set comment="band 13">
        <r>  0.0254  0.0034  0.0249  0.0022  0.0129  0.0492  0.0012  0.1454  0.0045 </r>
        <r>  0.2948  0.0393  0.0021  0.0258  0.1499  0.0042  0.0140  0.0125  0.0527 </r>
       </set>
       <set comment="band 14">
        <r>  0.2948  0.0393  0.0021  0.0258  0.1499  0.0042  0.0140  0.0125  0.0527 </r>
        <r>  0.0254  0.0034  0.0249  0.0022  0.0129  0.0492  0.0012  0.1454  0.0045 </r>
       </set>
       <set comment="band 15">
        <r>  0.0027  0.0038  0.0206  0.0013  0.0013  0.1090  0.0006  0.0425  0.0004 </r>
        <r>  0.1548  0.2177  0.0004  0.0727  0.0731  0.0019  0.0361  0.0007  0.0244 </r>
       </set>
       <set comment="band 16">
        <r>  0.1548  0.2177  0.0004  0.0727  0.0731  0.0019  0.0361  0.0007  0.0244 </r>
        <r>  0.0027  0.0038  0.0206  0.0013  0.0013  0.1090  0.0006  0.0425  0.0004 </r>
       </set>
       <set comment="band 17">
        <r>  0.0001  0.0005  0.2635  0.0016  0.0002  0.0321  0.0001  0.0627  0.0002 </r>
        <r>  0.0035  0.0304  0.0047  0.0886  0.0091  0.0006  0.0069  0.0011  0.0134 </r>
       </set>
       <set comment="band 18">
        <r>  0.0035  0.0304  0.0047  0.0886  0.0091  0.0006  0.0069  0.0011  0.0134 </r>
        <r>  0.0001  0.0005  0.2635  0.0016  0.0002  0.0321  0.0001  0.0627  0.0002 </r>
       </set>
       <set comment="band 19">
        <r>  0.0004  0.0000  0.0350  0.0000  0.0011  0.0893  0.0023  0.2212  0.0004 </r>
        <r>  0.0499  0.0008  0.0003  0.0017  0.1256  0.0008  0.2644  0.0019  0.0419 </r>
       </set>
       <set comment="band 20">
        <r>  0.0499  0.0008  0.0003  0.0017  0.1256  0.0008  0.2644  0.0019  0.0419 </r>
        <r>  0.0004  0.0000  0.0350  0.0000  0.0011  0.0893  0.0023  0.2212  0.0004 </r>
       </set>
       <set comment="band 21">
        <r>  0.0029  0.0214  0.1558  0.0072  0.0018  0.0092  0.0061  0.0081  0.0007 </r>
        <r>  0.0196  0.1420  0.0234  0.0479  0.0122  0.0014  0.0405  0.0012  0.0046 </r>
       </set>
       <set comment="band 22">
        <r>  0.0196  0.1420  0.0234  0.0479  0.0122  0.0014  0.0405  0.0012  0.0046 </r>
        <r>  0.0029  0.0214  0.1558  0.0072  0.0018  0.0092  0.0061  0.0081  0.0007 </r>
       </set>
       <set comment="band 23">
        <r>  0.0134  0.0004  0.0008  0.0002  0.0096  0.2442  0.0042  0.0946  0.0032 </r>
        <r>  0.1921  0.0060  0.0001  0.0022  0.1380  0.0170  0.0602  0.0066  0.0460 </r>
       </set>
       <set comment="band 24">
        <r>  0.1921  0.0060  0.0001  0.0022  0.1380  0.0170  0.0602  0.0066  0.0460 </r>
        <r>  0.0134  0.0004  0.0008  0.0002  0.0096  0.2442  0.0042  0.0946  0.0032 </r>
       </set>
      </set>
      <set comment="kpoint 93">
       <set comment="band 1">
        <r>  0.0349  0.0029  0.0164  0.0198  0.0124  0.0003  0.0154  0.3174  0.0206 </r>
        <r>  0.0785  0.0065  0.0073  0.0445  0.0278  0.0001  0.0346  0.1412  0.0463 </r>
       </set>
       <set comment="band 2">
        <r>  0.0785  0.0065  0.0073  0.0445  0.0278  0.0001  0.0346  0.1412  0.0463 </r>
        <r>  0.0349  0.0029  0.0164  0.0198  0.0124  0.0003  0.0154  0.3174  0.0206 </r>
       </set>
       <set comment="band 3">
        <r>  0.0182  0.0458  0.0062  0.0105  0.5282  0.0136  0.0042  0.0000  0.0326 </r>
        <r>  0.0044  0.0111  0.0255  0.0026  0.1284  0.0557  0.0010  0.0000  0.0079 </r>
       </set>
       <set comment="band 4">
        <r>  0.0044  0.0111  0.0255  0.0026  0.1284  0.0557  0.0010  0.0000  0.0079 </r>
        <r>  0.0182  0.0458  0.0062  0.0105  0.5282  0.0136  0.0042  0.0000  0.0326 </r>
       </set>
       <set comment="band 5">
        <r>  0.0008  0.0000  0.0031  0.0597  0.0008  0.0894  0.2272  0.0098  0.1072 </r>
        <r>  0.0004  0.0000  0.0058  0.0322  0.0004  0.1659  0.1225  0.0183  0.0578 </r>
       </set>
       <set comment="band 6">
        <r>  0.0004  0.0000  0.0058  0.0322  0.0004  0.1659  0.1225  0.0183  0.0578 </r>
        <r>  0.0008  0.0000  0.0031  0.0597  0.0008  0.0894  0.2272  0.0098  0.1072 </r>
       </set>
       <set comment="band 7">
        <r>  0.0034  0.0000  0.0000  0.0005  0.0477  0.3066  0.0157  0.0562  0.0758 </r>
        <r>  0.0055  0.0000  0.0000  0.0007  0.0777  0.1883  0.0255  0.0345  0.1234 </r>
       </set>
       <set comment="band 8">
        <r>  0.0055  0.0000  0.0000  0.0007  0.0777  0.1883  0.0255  0.0345  0.1234 </r>
        <r>  0.0034  0.0000  0.0000  0.0005  0.0477  0.3066  0.0157  0.0562  0.0758 </r>
       </set>
       <set comment="band 9">
        <r>  0.0000  0.0000  0.0010  0.0020  0.0064  0.0284  0.3481  0.0663  0.1128 </r>
        <r>  0.0000  0.0000  0.0021  0.0009  0.0029  0.0623  0.1586  0.1454  0.0514 </r>
       </set>
       <set comment="band 10">
        <r>  0.0000  0.0000  0.0021  0.0009  0.0029  0.0623  0.1586  0.1454  0.0514 </r>
        <r>  0.0000  0.0000  0.0010  0.0020  0.0064  0.0284  0.3481  0.0663  0.1128 </r>
       </set>
       <set comment="band 11">
        <r>  0.0110  0.0005  0.0613  0.0246  0.0028  0.0058  0.0002  0.1275  0.0525 </r>
        <r>  0.0676  0.0028  0.0100  0.1509  0.0171  0.0009  0.0010  0.0208  0.3227 </r>
       </set>
       <set comment="band 12">
        <r>  0.0676  0.0028  0.0100  0.1509  0.0171  0.0009  0.0010  0.0208  0.3227 </r>
        <r>  0.0110  0.0005  0.0613  0.0246  0.0028  0.0058  0.0002  0.1275  0.0525 </r>
       </set>
       <set comment="band 13">
        <r>  0.0001  0.0428  0.0557  0.0010  0.0436  0.0332  0.0003  0.0580  0.0002 </r>
        <r>  0.0006  0.2619  0.0091  0.0059  0.2672  0.0054  0.0015  0.0095  0.0011 </r>
       </set>
       <set comment="band 14">
        <r>  0.0006  0.2619  0.0091  0.0059  0.2672  0.0054  0.0015  0.0095  0.0011 </r>
        <r>  0.0001  0.0428  0.0557  0.0010  0.0436  0.0332  0.0003  0.0580  0.0002 </r>
       </set>
       <set comment="band 15">
        <r>  0.0402  0.0001  0.0039  0.0179  0.0001  0.1071  0.0064  0.0727  0.0000 </r>
        <r>  0.3312  0.0007  0.0005  0.1474  0.0005  0.0130  0.0529  0.0088  0.0001 </r>
       </set>
       <set comment="band 16">
        <r>  0.3312  0.0007  0.0005  0.1474  0.0005  0.0130  0.0529  0.0088  0.0001 </r>
        <r>  0.0402  0.0001  0.0039  0.0179  0.0001  0.1071  0.0064  0.0727  0.0000 </r>
       </set>
       <set comment="band 17">
        <r>  0.0005  0.0000  0.2601  0.0007  0.0000  0.0261  0.0009  0.0905  0.0002 </r>
        <r>  0.0442  0.0001  0.0027  0.0703  0.0027  0.0003  0.0882  0.0009  0.0235 </r>
       </set>
       <set comment="band 18">
        <r>  0.0442  0.0001  0.0027  0.0703  0.0027  0.0003  0.0882  0.0009  0.0235 </r>
        <r>  0.0005  0.0000  0.2601  0.0007  0.0000  0.0261  0.0009  0.0905  0.0002 </r>
       </set>
       <set comment="band 19">
        <r>  0.0037  0.0323  0.0461  0.0068  0.0527  0.0605  0.0244  0.0518  0.0055 </r>
        <r>  0.0039  0.0337  0.0442  0.0071  0.0550  0.0580  0.0255  0.0497  0.0057 </r>
       </set>
       <set comment="band 20">
        <r>  0.0039  0.0337  0.0442  0.0071  0.0550  0.0580  0.0255  0.0497  0.0057 </r>
        <r>  0.0037  0.0323  0.0461  0.0068  0.0527  0.0605  0.0244  0.0518  0.0055 </r>
       </set>
       <set comment="band 21">
        <r>  0.0174  0.0043  0.0358  0.0276  0.0176  0.0037  0.1376  0.0879  0.0193 </r>
        <r>  0.0154  0.0038  0.0404  0.0245  0.0156  0.0042  0.1220  0.0991  0.0171 </r>
       </set>
       <set comment="band 22">
        <r>  0.0154  0.0038  0.0404  0.0245  0.0156  0.0042  0.1220  0.0991  0.0171 </r>
        <r>  0.0174  0.0043  0.0358  0.0276  0.0176  0.0037  0.1376  0.0879  0.0193 </r>
       </set>
       <set comment="band 23">
        <r>  0.0004  0.0922  0.0362  0.0004  0.0702  0.0182  0.0000  0.0090  0.0000 </r>
        <r>  0.0007  0.1731  0.0193  0.0008  0.1318  0.0097  0.0000  0.0048  0.0000 </r>
       </set>
       <set comment="band 24">
        <r>  0.0007  0.1731  0.0193  0.0008  0.1318  0.0097  0.0000  0.0048  0.0000 </r>
        <r>  0.0004  0.0922  0.0362  0.0004  0.0702  0.0182  0.0000  0.0090  0.0000 </r>
       </set>
      </set>
      <set comment="kpoint 94">
       <set comment="band 1">
        <r>  0.0059  0.0022  0.0033  0.0033  0.0103  0.0370  0.0069  0.4014  0.0060 </r>
        <r>  0.0573  0.0212  0.0003  0.0321  0.0996  0.0038  0.0662  0.0416  0.0576 </r>
       </set>
       <set comment="band 2">
        <r>  0.0573  0.0212  0.0003  0.0321  0.0996  0.0038  0.0662  0.0416  0.0576 </r>
        <r>  0.0059  0.0022  0.0033  0.0033  0.0103  0.0370  0.0069  0.4014  0.0060 </r>
       </set>
       <set comment="band 3">
        <r>  0.0149  0.0460  0.0002  0.0018  0.3175  0.0078  0.1654  0.0023  0.0166 </r>
        <r>  0.0005  0.0015  0.0073  0.0001  0.0105  0.2354  0.0055  0.0708  0.0005 </r>
       </set>
       <set comment="band 4">
        <r>  0.0005  0.0015  0.0073  0.0001  0.0105  0.2354  0.0055  0.0708  0.0005 </r>
        <r>  0.0149  0.0460  0.0002  0.0018  0.3175  0.0078  0.1654  0.0023  0.0166 </r>
       </set>
       <set comment="band 5">
        <r>  0.0056  0.0176  0.0072  0.0898  0.1484  0.0328  0.0481  0.0010  0.2258 </r>
        <r>  0.0013  0.0041  0.0312  0.0208  0.0344  0.1413  0.0111  0.0044  0.0523 </r>
       </set>
       <set comment="band 6">
        <r>  0.0013  0.0041  0.0312  0.0208  0.0344  0.1413  0.0111  0.0044  0.0523 </r>
        <r>  0.0056  0.0176  0.0072  0.0898  0.1484  0.0328  0.0481  0.0010  0.2258 </r>
       </set>
       <set comment="band 7">
        <r>  0.0003  0.0002  0.0012  0.0011  0.0171  0.2898  0.0022  0.1182  0.0311 </r>
        <r>  0.0028  0.0021  0.0001  0.0093  0.1488  0.0333  0.0195  0.0136  0.2701 </r>
       </set>
       <set comment="band 8">
        <r>  0.0028  0.0021  0.0001  0.0093  0.1488  0.0333  0.0195  0.0136  0.2701 </r>
        <r>  0.0003  0.0002  0.0012  0.0011  0.0171  0.2898  0.0022  0.1182  0.0311 </r>
       </set>
       <set comment="band 9">
        <r>  0.0011  0.0001  0.0001  0.0014  0.0091  0.0121  0.5607  0.0211  0.0440 </r>
        <r>  0.0001  0.0000  0.0009  0.0002  0.0012  0.0933  0.0730  0.1621  0.0057 </r>
       </set>
       <set comment="band 10">
        <r>  0.0001  0.0000  0.0009  0.0002  0.0012  0.0933  0.0730  0.1621  0.0057 </r>
        <r>  0.0011  0.0001  0.0001  0.0014  0.0091  0.0121  0.5607  0.0211  0.0440 </r>
       </set>
       <set comment="band 11">
        <r>  0.0275  0.0211  0.0224  0.1968  0.0318  0.0021  0.0013  0.0143  0.2422 </r>
        <r>  0.0077  0.0059  0.0807  0.0547  0.0088  0.0076  0.0004  0.0513  0.0673 </r>
       </set>
       <set comment="band 12">
        <r>  0.0077  0.0059  0.0807  0.0547  0.0088  0.0076  0.0004  0.0513  0.0673 </r>
        <r>  0.0275  0.0211  0.0224  0.1968  0.0318  0.0021  0.0013  0.0143  0.2422 </r>
       </set>
       <set comment="band 13">
        <r>  0.0020  0.0031  0.0375  0.0002  0.0034  0.0540  0.0001  0.1065  0.0002 </r>
        <r>  0.1375  0.2077  0.0006  0.0162  0.2320  0.0008  0.0075  0.0016  0.0147 </r>
       </set>
       <set comment="band 14">
        <r>  0.1375  0.2077  0.0006  0.0162  0.2320  0.0008  0.0075  0.0016  0.0147 </r>
        <r>  0.0020  0.0031  0.0375  0.0002  0.0034  0.0540  0.0001  0.1065  0.0002 </r>
       </set>
       <set comment="band 15">
        <r>  0.0172  0.0045  0.0129  0.0035  0.0022  0.1207  0.0020  0.0660  0.0003 </r>
        <r>  0.3251  0.0853  0.0007  0.0659  0.0423  0.0064  0.0387  0.0035  0.0061 </r>
       </set>
       <set comment="band 16">
        <r>  0.3251  0.0853  0.0007  0.0659  0.0423  0.0064  0.0387  0.0035  0.0061 </r>
        <r>  0.0172  0.0045  0.0129  0.0035  0.0022  0.1207  0.0020  0.0660  0.0003 </r>
       </set>
       <set comment="band 17">
        <r>  0.0000  0.0000  0.2650  0.0004  0.0000  0.0397  0.0001  0.0877  0.0001 </r>
        <r>  0.0116  0.0079  0.0010  0.0976  0.0043  0.0002  0.0252  0.0003  0.0335 </r>
       </set>
       <set comment="band 18">
        <r>  0.0116  0.0079  0.0010  0.0976  0.0043  0.0002  0.0252  0.0003  0.0335 </r>
        <r>  0.0000  0.0000  0.2650  0.0004  0.0000  0.0397  0.0001  0.0877  0.0001 </r>
       </set>
       <set comment="band 19">
        <r>  0.0027  0.0094  0.1191  0.0002  0.0122  0.0915  0.0082  0.1405  0.0011 </r>
        <r>  0.0175  0.0609  0.0184  0.0016  0.0789  0.0141  0.0531  0.0217  0.0072 </r>
       </set>
       <set comment="band 20">
        <r>  0.0175  0.0609  0.0184  0.0016  0.0789  0.0141  0.0531  0.0217  0.0072 </r>
        <r>  0.0027  0.0094  0.1191  0.0002  0.0122  0.0915  0.0082  0.1405  0.0011 </r>
       </set>
       <set comment="band 21">
        <r>  0.0091  0.0062  0.0364  0.0051  0.0003  0.0532  0.0545  0.0703  0.0011 </r>
        <r>  0.0437  0.0297  0.0076  0.0244  0.0016  0.0111  0.2611  0.0147  0.0053 </r>
       </set>
       <set comment="band 22">
        <r>  0.0437  0.0297  0.0076  0.0244  0.0016  0.0111  0.2611  0.0147  0.0053 </r>
        <r>  0.0091  0.0062  0.0364  0.0051  0.0003  0.0532  0.0545  0.0703  0.0011 </r>
       </set>
       <set comment="band 23">
        <r>  0.0166  0.0213  0.0275  0.0013  0.0344  0.0973  0.0005  0.0408  0.0056 </r>
        <r>  0.0986  0.1263  0.0046  0.0077  0.2041  0.0164  0.0032  0.0069  0.0333 </r>
       </set>
       <set comment="band 24">
        <r>  0.0986  0.1263  0.0046  0.0077  0.2041  0.0164  0.0032  0.0069  0.0333 </r>
        <r>  0.0166  0.0213  0.0275  0.0013  0.0344  0.0973  0.0005  0.0408  0.0056 </r>
       </set>
      </set>
      <set comment="kpoint 95">
       <set comment="band 1">
        <r>  0.0000  0.0402  0.0000  0.0402  0.0983  0.0705  0.0000  0.0705  0.0983 </r>
        <r>  0.0000  0.0205  0.0000  0.0205  0.0501  0.1384  0.0000  0.1384  0.0501 </r>
       </set>
       <set comment="band 2">
        <r>  0.0000  0.0205  0.0000  0.0205  0.0501  0.1384  0.0000  0.1384  0.0501 </r>
        <r>  0.0000  0.0402  0.0000  0.0402  0.0983  0.0705  0.0000  0.0705  0.0983 </r>
       </set>
       <set comment="band 3">
        <r>  0.0170  0.0000  0.0000  0.0000  0.0000  0.2182  0.0669  0.2182  0.0000 </r>
        <r>  0.0503  0.0000  0.0000  0.0000  0.0000  0.0739  0.1976  0.0739  0.0000 </r>
       </set>
       <set comment="band 4">
        <r>  0.0503  0.0000  0.0000  0.0000  0.0000  0.0739  0.1976  0.0739  0.0000 </r>
        <r>  0.0170  0.0000  0.0000  0.0000  0.0000  0.2182  0.0669  0.2182  0.0000 </r>
       </set>
       <set comment="band 5">
        <r>  0.0000  0.0162  0.0343  0.0162  0.0875  0.0000  0.0000  0.0000  0.0875 </r>
        <r>  0.0000  0.0496  0.0112  0.0496  0.2679  0.0000  0.0000  0.0000  0.2679 </r>
       </set>
       <set comment="band 6">
        <r>  0.0000  0.0496  0.0112  0.0496  0.2679  0.0000  0.0000  0.0000  0.2679 </r>
        <r>  0.0000  0.0162  0.0343  0.0162  0.0875  0.0000  0.0000  0.0000  0.0875 </r>
       </set>
       <set comment="band 7">
        <r>  0.0000  0.0032  0.0000  0.0032  0.2324  0.0220  0.0000  0.0220  0.2324 </r>
        <r>  0.0000  0.0004  0.0000  0.0004  0.0258  0.1978  0.0000  0.1978  0.0258 </r>
       </set>
       <set comment="band 8">
        <r>  0.0000  0.0004  0.0000  0.0004  0.0258  0.1978  0.0000  0.1978  0.0258 </r>
        <r>  0.0000  0.0032  0.0000  0.0032  0.2324  0.0220  0.0000  0.0220  0.2324 </r>
       </set>
       <set comment="band 9">
        <r>  0.0021  0.0000  0.0000  0.0000  0.0000  0.0589  0.4087  0.0589  0.0000 </r>
        <r>  0.0015  0.0000  0.0000  0.0000  0.0000  0.0836  0.2879  0.0836  0.0000 </r>
       </set>
       <set comment="band 10">
        <r>  0.0015  0.0000  0.0000  0.0000  0.0000  0.0836  0.2879  0.0836  0.0000 </r>
        <r>  0.0021  0.0000  0.0000  0.0000  0.0000  0.0589  0.4087  0.0589  0.0000 </r>
       </set>
       <set comment="band 11">
        <r>  0.0000  0.1235  0.0360  0.1235  0.1397  0.0000  0.0000  0.0000  0.1397 </r>
        <r>  0.0000  0.0352  0.1263  0.0352  0.0398  0.0000  0.0000  0.0000  0.0398 </r>
       </set>
       <set comment="band 12">
        <r>  0.0000  0.0352  0.1263  0.0352  0.0398  0.0000  0.0000  0.0000  0.0398 </r>
        <r>  0.0000  0.1235  0.0360  0.1235  0.1397  0.0000  0.0000  0.0000  0.1397 </r>
       </set>
       <set comment="band 13">
        <r>  0.0000  0.1117  0.0000  0.1117  0.0861  0.0321  0.0000  0.0321  0.0861 </r>
        <r>  0.0000  0.0626  0.0000  0.0626  0.0483  0.0572  0.0000  0.0572  0.0483 </r>
       </set>
       <set comment="band 14">
        <r>  0.0000  0.0626  0.0000  0.0626  0.0483  0.0572  0.0000  0.0572  0.0483 </r>
        <r>  0.0000  0.1117  0.0000  0.1117  0.0861  0.0321  0.0000  0.0321  0.0861 </r>
       </set>
       <set comment="band 15">
        <r>  0.1239  0.0000  0.0000  0.0000  0.0000  0.0967  0.0102  0.0967  0.0000 </r>
        <r>  0.4182  0.0000  0.0000  0.0000  0.0000  0.0287  0.0344  0.0287  0.0000 </r>
       </set>
       <set comment="band 16">
        <r>  0.4182  0.0000  0.0000  0.0000  0.0000  0.0287  0.0344  0.0287  0.0000 </r>
        <r>  0.1239  0.0000  0.0000  0.0000  0.0000  0.0967  0.0102  0.0967  0.0000 </r>
       </set>
       <set comment="band 17">
        <r>  0.0000  0.0424  0.1058  0.0424  0.0300  0.0000  0.0000  0.0000  0.0300 </r>
        <r>  0.0000  0.0132  0.3389  0.0132  0.0094  0.0000  0.0000  0.0000  0.0094 </r>
       </set>
       <set comment="band 18">
        <r>  0.0000  0.0132  0.3389  0.0132  0.0094  0.0000  0.0000  0.0000  0.0094 </r>
        <r>  0.0000  0.0424  0.1058  0.0424  0.0300  0.0000  0.0000  0.0000  0.0300 </r>
       </set>
       <set comment="band 19">
        <r>  0.0000  0.0165  0.0000  0.0165  0.0066  0.1340  0.0000  0.1340  0.0066 </r>
        <r>  0.0000  0.0397  0.0000  0.0397  0.0158  0.0557  0.0000  0.0557  0.0158 </r>
       </set>
       <set comment="band 20">
        <r>  0.0000  0.0397  0.0000  0.0397  0.0158  0.0557  0.0000  0.0557  0.0158 </r>
        <r>  0.0000  0.0165  0.0000  0.0165  0.0066  0.1340  0.0000  0.1340  0.0066 </r>
       </set>
       <set comment="band 21">
        <r>  0.0112  0.0000  0.0000  0.0000  0.0000  0.0903  0.0447  0.0903  0.0000 </r>
        <r>  0.0926  0.0000  0.0000  0.0000  0.0000  0.0109  0.3702  0.0109  0.0000 </r>
       </set>
       <set comment="band 22">
        <r>  0.0926  0.0000  0.0000  0.0000  0.0000  0.0109  0.3702  0.0109  0.0000 </r>
        <r>  0.0112  0.0000  0.0000  0.0000  0.0000  0.0903  0.0447  0.0903  0.0000 </r>
       </set>
       <set comment="band 23">
        <r>  0.0000  0.0542  0.0000  0.0542  0.1318  0.0222  0.0000  0.0222  0.1317 </r>
        <r>  0.0000  0.0266  0.0000  0.0266  0.0646  0.0453  0.0000  0.0453  0.0646 </r>
       </set>
       <set comment="band 24">
        <r>  0.0000  0.0266  0.0000  0.0266  0.0647  0.0453  0.0000  0.0453  0.0646 </r>
        <r>  0.0000  0.0542  0.0000  0.0542  0.1318  0.0222  0.0000  0.0222  0.1317 </r>
       </set>
      </set>
     </set>
    </set>
   </array>
  </projected>
 </calculation>
 <structure name="finalpos" >
  <crystal>
   <varray name="basis" >
    <v>       1.25983272      -2.18209429       0.00000000 </v>
    <v>       1.25983272       2.18209429       0.00000000 </v>
    <v>       0.00000000       0.00000000       4.06433953 </v>
   </varray>
   <i name="volume">     22.34633853 </i>
   <varray name="rec_basis" >
    <v>       0.39687809      -0.22913767       0.00000000 </v>
    <v>       0.39687809       0.22913767       0.00000000 </v>
    <v>       0.00000000       0.00000000       0.24604244 </v>
   </varray>
  </crystal>
  <varray name="positions" >
   <v>       0.33333333       0.66666667       0.25000000 </v>
   <v>       0.66666667       0.33333333       0.75000000 </v>
  </varray>
 </structure>
</modeling>
