Co-hcc                                  
           1
     2.519857    0.000000    0.000000
    -1.259928    2.182260    0.000000
     0.000000    0.000000    4.077026
   Co
     2
Direct configuration=     1
   0.00000000  0.00000000  0.00000000
   0.33333333  0.66666667  0.50000000
