   2   2   0   0
  0.1579990E+02  0.2760000E-09  0.2760000E-09  0.4790000E-09  0.5000000E-15
  1.000000000000000E-004
  CAR 
 Pt-hcc                                  
     35.82777981    -45.36307284  301     11.09962051      1.00000000
    -45.363  0.0000E+00  0.0000E+00
    -45.092  0.0000E+00  0.0000E+00
    -44.822  0.0000E+00  0.0000E+00
    -44.551  0.0000E+00  0.0000E+00
    -44.281  0.0000E+00  0.0000E+00
    -44.010  0.0000E+00  0.0000E+00
    -43.739  0.0000E+00  0.0000E+00
    -43.469  0.0000E+00  0.0000E+00
    -43.198  0.0000E+00  0.0000E+00
    -42.927  0.0000E+00  0.0000E+00
    -42.657  0.0000E+00  0.0000E+00
    -42.386  0.0000E+00  0.0000E+00
    -42.115  0.0000E+00  0.0000E+00
    -41.845  0.2828E-06  0.7655E-07
    -41.574  0.6803E+01  0.1841E+01
    -41.304  0.2833E+02  0.9508E+01
    -41.033  0.9208E+01  0.1200E+02
    -40.762  0.0000E+00  0.1200E+02
    -40.492  0.0000E+00  0.1200E+02
    -40.221  0.0000E+00  0.1200E+02
    -39.950  0.0000E+00  0.1200E+02
    -39.680  0.0000E+00  0.1200E+02
    -39.409  0.0000E+00  0.1200E+02
    -39.138  0.0000E+00  0.1200E+02
    -38.868  0.0000E+00  0.1200E+02
    -38.597  0.0000E+00  0.1200E+02
    -38.327  0.0000E+00  0.1200E+02
    -38.056  0.0000E+00  0.1200E+02
    -37.785  0.0000E+00  0.1200E+02
    -37.515  0.0000E+00  0.1200E+02
    -37.244  0.0000E+00  0.1200E+02
    -36.973  0.0000E+00  0.1200E+02
    -36.703  0.0000E+00  0.1200E+02
    -36.432  0.0000E+00  0.1200E+02
    -36.161  0.0000E+00  0.1200E+02
    -35.891  0.0000E+00  0.1200E+02
    -35.620  0.0000E+00  0.1200E+02
    -35.350  0.0000E+00  0.1200E+02
    -35.079  0.0000E+00  0.1200E+02
    -34.808  0.0000E+00  0.1200E+02
    -34.538  0.0000E+00  0.1200E+02
    -34.267  0.0000E+00  0.1200E+02
    -33.996  0.0000E+00  0.1200E+02
    -33.726  0.0000E+00  0.1200E+02
    -33.455  0.0000E+00  0.1200E+02
    -33.184  0.0000E+00  0.1200E+02
    -32.914  0.0000E+00  0.1200E+02
    -32.643  0.0000E+00  0.1200E+02
    -32.373  0.0000E+00  0.1200E+02
    -32.102  0.0000E+00  0.1200E+02
    -31.831  0.0000E+00  0.1200E+02
    -31.561  0.0000E+00  0.1200E+02
    -31.290  0.0000E+00  0.1200E+02
    -31.019  0.0000E+00  0.1200E+02
    -30.749  0.0000E+00  0.1200E+02
    -30.478  0.0000E+00  0.1200E+02
    -30.207  0.0000E+00  0.1200E+02
    -29.937  0.0000E+00  0.1200E+02
    -29.666  0.0000E+00  0.1200E+02
    -29.396  0.0000E+00  0.1200E+02
    -29.125  0.0000E+00  0.1200E+02
    -28.854  0.0000E+00  0.1200E+02
    -28.584  0.0000E+00  0.1200E+02
    -28.313  0.0000E+00  0.1200E+02
    -28.042  0.0000E+00  0.1200E+02
    -27.772  0.0000E+00  0.1200E+02
    -27.501  0.0000E+00  0.1200E+02
    -27.230  0.0000E+00  0.1200E+02
    -26.960  0.0000E+00  0.1200E+02
    -26.689  0.0000E+00  0.1200E+02
    -26.419  0.0000E+00  0.1200E+02
    -26.148  0.0000E+00  0.1200E+02
    -25.877  0.0000E+00  0.1200E+02
    -25.607  0.0000E+00  0.1200E+02
    -25.336  0.0000E+00  0.1200E+02
    -25.065  0.0000E+00  0.1200E+02
    -24.795  0.0000E+00  0.1200E+02
    -24.524  0.0000E+00  0.1200E+02
    -24.253  0.0000E+00  0.1200E+02
    -23.983  0.0000E+00  0.1200E+02
    -23.712  0.0000E+00  0.1200E+02
    -23.442  0.0000E+00  0.1200E+02
    -23.171  0.0000E+00  0.1200E+02
    -22.900  0.0000E+00  0.1200E+02
    -22.630  0.0000E+00  0.1200E+02
    -22.359  0.0000E+00  0.1200E+02
    -22.088  0.0000E+00  0.1200E+02
    -21.818  0.0000E+00  0.1200E+02
    -21.547  0.0000E+00  0.1200E+02
    -21.276  0.0000E+00  0.1200E+02
    -21.006  0.0000E+00  0.1200E+02
    -20.735  0.0000E+00  0.1200E+02
    -20.465  0.0000E+00  0.1200E+02
    -20.194  0.0000E+00  0.1200E+02
    -19.923  0.0000E+00  0.1200E+02
    -19.653  0.0000E+00  0.1200E+02
    -19.382  0.0000E+00  0.1200E+02
    -19.111  0.0000E+00  0.1200E+02
    -18.841  0.0000E+00  0.1200E+02
    -18.570  0.0000E+00  0.1200E+02
    -18.299  0.0000E+00  0.1200E+02
    -18.029  0.0000E+00  0.1200E+02
    -17.758  0.0000E+00  0.1200E+02
    -17.488  0.0000E+00  0.1200E+02
    -17.217  0.0000E+00  0.1200E+02
    -16.946  0.0000E+00  0.1200E+02
    -16.676  0.0000E+00  0.1200E+02
    -16.405  0.0000E+00  0.1200E+02
    -16.134  0.0000E+00  0.1200E+02
    -15.864  0.0000E+00  0.1200E+02
    -15.593  0.0000E+00  0.1200E+02
    -15.322  0.0000E+00  0.1200E+02
    -15.052  0.0000E+00  0.1200E+02
    -14.781  0.0000E+00  0.1200E+02
    -14.511  0.0000E+00  0.1200E+02
    -14.240  0.0000E+00  0.1200E+02
    -13.969  0.0000E+00  0.1200E+02
    -13.699  0.0000E+00  0.1200E+02
    -13.428  0.0000E+00  0.1200E+02
    -13.157  0.0000E+00  0.1200E+02
    -12.887  0.0000E+00  0.1200E+02
    -12.616  0.0000E+00  0.1200E+02
    -12.345  0.0000E+00  0.1200E+02
    -12.075  0.0000E+00  0.1200E+02
    -11.804  0.0000E+00  0.1200E+02
    -11.534  0.0000E+00  0.1200E+02
    -11.263  0.0000E+00  0.1200E+02
    -10.992  0.0000E+00  0.1200E+02
    -10.722  0.0000E+00  0.1200E+02
    -10.451  0.0000E+00  0.1200E+02
    -10.180  0.0000E+00  0.1200E+02
     -9.910  0.0000E+00  0.1200E+02
     -9.639  0.0000E+00  0.1200E+02
     -9.368  0.0000E+00  0.1200E+02
     -9.098  0.0000E+00  0.1200E+02
     -8.827  0.0000E+00  0.1200E+02
     -8.557  0.0000E+00  0.1200E+02
     -8.286  0.0000E+00  0.1200E+02
     -8.015  0.0000E+00  0.1200E+02
     -7.745  0.0000E+00  0.1200E+02
     -7.474  0.0000E+00  0.1200E+02
     -7.203  0.0000E+00  0.1200E+02
     -6.933  0.0000E+00  0.1200E+02
     -6.662  0.0000E+00  0.1200E+02
     -6.391  0.0000E+00  0.1200E+02
     -6.121  0.0000E+00  0.1200E+02
     -5.850  0.0000E+00  0.1200E+02
     -5.580  0.0000E+00  0.1200E+02
     -5.309  0.0000E+00  0.1200E+02
     -5.038  0.0000E+00  0.1200E+02
     -4.768  0.0000E+00  0.1200E+02
     -4.497  0.0000E+00  0.1200E+02
     -4.226  0.0000E+00  0.1200E+02
     -3.956  0.0000E+00  0.1200E+02
     -3.685  0.0000E+00  0.1200E+02
     -3.414  0.0000E+00  0.1200E+02
     -3.144  0.0000E+00  0.1200E+02
     -2.873  0.0000E+00  0.1200E+02
     -2.603  0.0000E+00  0.1200E+02
     -2.332  0.0000E+00  0.1200E+02
     -2.061  0.0000E+00  0.1200E+02
     -1.791  0.0000E+00  0.1200E+02
     -1.520  0.0000E+00  0.1200E+02
     -1.249  0.0000E+00  0.1200E+02
     -0.979  0.0000E+00  0.1200E+02
     -0.708  0.0000E+00  0.1200E+02
     -0.437  0.0000E+00  0.1200E+02
     -0.167  0.0000E+00  0.1200E+02
      0.104  0.0000E+00  0.1200E+02
      0.374  0.0000E+00  0.1200E+02
      0.645  0.0000E+00  0.1200E+02
      0.916  0.0000E+00  0.1200E+02
      1.186  0.5386E-12  0.1200E+02
      1.457  0.4262E-01  0.1201E+02
      1.728  0.8703E-02  0.1201E+02
      1.998  0.9612E-01  0.1204E+02
      2.269  0.6676E-02  0.1204E+02
      2.540  0.3078E+00  0.1212E+02
      2.810  0.3022E-01  0.1213E+02
      3.081  0.5861E+00  0.1229E+02
      3.351  0.1022E+00  0.1232E+02
      3.622  0.0000E+00  0.1232E+02
      3.893  0.1955E-02  0.1232E+02
      4.163  0.1075E+01  0.1261E+02
      4.434  0.1554E+01  0.1303E+02
      4.705  0.6205E+00  0.1320E+02
      4.975  0.2136E+01  0.1378E+02
      5.246  0.3026E+01  0.1460E+02
      5.517  0.1830E+01  0.1509E+02
      5.787  0.2458E+01  0.1576E+02
      6.058  0.1694E+01  0.1622E+02
      6.328  0.4211E+01  0.1736E+02
      6.599  0.3555E+01  0.1832E+02
      6.870  0.2627E+01  0.1903E+02
      7.140  0.2340E+01  0.1966E+02
      7.411  0.2349E+01  0.2030E+02
      7.682  0.4746E+01  0.2158E+02
      7.952  0.1665E+01  0.2203E+02
      8.223  0.4702E+01  0.2331E+02
      8.494  0.3296E+01  0.2420E+02
      8.764  0.4954E+01  0.2554E+02
      9.035  0.2193E+01  0.2613E+02
      9.305  0.2817E+01  0.2689E+02
      9.576  0.1831E+01  0.2739E+02
      9.847  0.4092E+00  0.2750E+02
     10.117  0.3682E+01  0.2850E+02
     10.388  0.4149E+01  0.2962E+02
     10.659  0.3123E+01  0.3046E+02
     10.929  0.3610E+01  0.3144E+02
     11.200  0.4362E+01  0.3262E+02
     11.471  0.1631E+01  0.3306E+02
     11.741  0.1099E+01  0.3336E+02
     12.012  0.3095E-01  0.3337E+02
     12.282  0.5864E+00  0.3353E+02
     12.553  0.2992E+00  0.3361E+02
     12.824  0.1117E+00  0.3364E+02
     13.094  0.2060E+00  0.3369E+02
     13.365  0.1965E+01  0.3423E+02
     13.636  0.1037E+01  0.3451E+02
     13.906  0.8170E+00  0.3473E+02
     14.177  0.9518E+00  0.3499E+02
     14.448  0.2633E+00  0.3506E+02
     14.718  0.4554E-01  0.3507E+02
     14.989  0.1536E+00  0.3511E+02
     15.259  0.3124E-03  0.3511E+02
     15.530  0.8719E-01  0.3513E+02
     15.801  0.4925E+00  0.3527E+02
     16.071  0.2146E+01  0.3585E+02
     16.342  0.9669E-01  0.3588E+02
     16.613  0.0000E+00  0.3588E+02
     16.883  0.2770E-01  0.3588E+02
     17.154  0.7975E+00  0.3610E+02
     17.425  0.2012E+00  0.3615E+02
     17.695  0.8026E+00  0.3637E+02
     17.966  0.1737E+01  0.3684E+02
     18.236  0.1152E+01  0.3715E+02
     18.507  0.1662E+00  0.3720E+02
     18.778  0.9361E-01  0.3722E+02
     19.048  0.5913E+00  0.3738E+02
     19.319  0.1256E+01  0.3772E+02
     19.590  0.6156E+00  0.3789E+02
     19.860  0.3379E+00  0.3798E+02
     20.131  0.6817E+00  0.3816E+02
     20.402  0.1671E+01  0.3862E+02
     20.672  0.1583E+01  0.3905E+02
     20.943  0.3683E-01  0.3906E+02
     21.213  0.0000E+00  0.3906E+02
     21.484  0.6770E-01  0.3907E+02
     21.755  0.2265E+01  0.3969E+02
     22.025  0.3362E+00  0.3978E+02
     22.296  0.0000E+00  0.3978E+02
     22.567  0.0000E+00  0.3978E+02
     22.837  0.1497E-02  0.3978E+02
     23.108  0.5171E+00  0.3992E+02
     23.379  0.5191E+00  0.4006E+02
     23.649  0.1688E+01  0.4052E+02
     23.920  0.1984E+01  0.4105E+02
     24.190  0.7459E+00  0.4125E+02
     24.461  0.2853E+01  0.4203E+02
     24.732  0.5092E-02  0.4203E+02
     25.002  0.3079E+00  0.4211E+02
     25.273  0.8810E+00  0.4235E+02
     25.544  0.1422E+01  0.4273E+02
     25.814  0.1499E+01  0.4314E+02
     26.085  0.4815E+00  0.4327E+02
     26.356  0.2640E+01  0.4398E+02
     26.626  0.9304E+00  0.4424E+02
     26.897  0.1066E+01  0.4453E+02
     27.167  0.2895E+01  0.4531E+02
     27.438  0.1712E+01  0.4577E+02
     27.709  0.7903E+00  0.4599E+02
     27.979  0.1147E+00  0.4602E+02
     28.250  0.1017E+01  0.4629E+02
     28.521  0.2971E+00  0.4637E+02
     28.791  0.2047E+01  0.4693E+02
     29.062  0.7180E+00  0.4712E+02
     29.333  0.9910E+00  0.4739E+02
     29.603  0.1506E+01  0.4780E+02
     29.874  0.2702E+00  0.4787E+02
     30.144  0.7143E-01  0.4789E+02
     30.415  0.0000E+00  0.4789E+02
     30.686  0.0000E+00  0.4789E+02
     30.956  0.2306E-04  0.4789E+02
     31.227  0.2052E+00  0.4794E+02
     31.498  0.8787E-01  0.4797E+02
     31.768  0.1477E-01  0.4797E+02
     32.039  0.2759E-03  0.4797E+02
     32.310  0.1024E+00  0.4800E+02
     32.580  0.0000E+00  0.4800E+02
     32.851  0.0000E+00  0.4800E+02
     33.121  0.0000E+00  0.4800E+02
     33.392  0.0000E+00  0.4800E+02
     33.663  0.0000E+00  0.4800E+02
     33.933  0.0000E+00  0.4800E+02
     34.204  0.0000E+00  0.4800E+02
     34.475  0.0000E+00  0.4800E+02
     34.745  0.0000E+00  0.4800E+02
     35.016  0.0000E+00  0.4800E+02
     35.287  0.0000E+00  0.4800E+02
     35.557  0.0000E+00  0.4800E+02
     35.828  0.0000E+00  0.4800E+02
