    2    2    1    1
  0.1579990E+02  0.2760000E-09  0.2760000E-09  0.4790000E-09  0.5000000E-15
  1.000000000000000E-004
  CAR 
 Pt-hcc                                  
     32     21     24
 
  0.0000000E+00  0.0000000E+00  0.0000000E+00  0.6944444E-02
      1        -41.544747   1.000000
      2        -41.291897   1.000000
      3        -41.291896   1.000000
      4        -41.251659   1.000000
      5        -41.251658   1.000000
      6        -41.216435   1.000000
      7          1.423193   1.000000
      8          4.080224   1.000000
      9          7.164923   1.000000
     10          7.742258   1.000000
     11          7.742259   1.000000
     12          8.107967   1.000000
     13          8.107968   1.000000
     14          9.312348   1.000000
     15          9.312348   1.000000
     16         10.393002   1.000000
     17         10.890698   1.000000
     18         10.890699   1.000000
     19         15.764868   0.000000
     20         26.261237   0.000000
     21         26.805675   0.000000
     22         28.414287   0.000000
     23         32.137286   0.000000
     24         32.137287   0.000000
 
  0.1666667E+00  0.0000000E+00  0.0000000E+00  0.4166667E-01
      1        -41.512554   1.000000
      2        -41.385631   1.000000
      3        -41.347500   1.000000
      4        -41.318403   1.000000
      5        -41.270948   1.000000
      6        -41.223884   1.000000
      7          2.384994   1.000000
      8          4.890248   1.000000
      9          6.971039   1.000000
     10          7.586497   1.000000
     11          7.801888   1.000000
     12          8.097928   1.000000
     13          8.489807   1.000000
     14          8.816134   1.000000
     15          8.901069   1.000000
     16          8.950936   1.000000
     17         11.022414   0.985509
     18         14.080071   0.000000
     19         15.684858   0.000000
     20         26.165356   0.000000
     21         27.991129   0.000000
     22         28.731419   0.000000
     23         29.039804   0.000000
     24         29.539517   0.000000
 
  0.3333333E+00  0.0000000E+00  0.0000000E+00  0.4166667E-01
      1        -41.574463   1.000000
      2        -41.533887   1.000000
      3        -41.438286   1.000000
      4        -41.371118   1.000000
      5        -41.311763   1.000000
      6        -41.250430   1.000000
      7          4.286049   1.000000
      8          5.157384   1.000000
      9          6.057860   1.000000
     10          7.285476   1.000000
     11          7.822294   1.000000
     12          8.121735   1.000000
     13          8.267418   1.000000
     14         10.025578   1.000000
     15         10.312273   1.000000
     16         10.515111   1.000000
     17         11.112197   0.361023
     18         15.986099   0.000000
     19         17.727814   0.000000
     20         20.168489   0.000000
     21         25.129504   0.000000
     22         25.891544   0.000000
     23         26.500515   0.000000
     24         28.634157   0.000000
 
  0.5000000E+00 -0.2775558E-16  0.0000000E+00  0.2083333E-01
      1        -41.668246   1.000000
      2        -41.625395   1.000000
      3        -41.397259   1.000000
      4        -41.386168   1.000000
      5        -41.332224   1.000000
      6        -41.279008   1.000000
      7          4.747700   1.000000
      8          4.815597   1.000000
      9          5.449834   1.000000
     10          7.759652   1.000000
     11          8.000586   1.000000
     12          8.180726   1.000000
     13          8.524714   1.000000
     14         11.115606   0.325584
     15         11.455025   0.000000
     16         11.655568   0.000000
     17         13.399285   0.000000
     18         14.887197   0.000000
     19         18.420697   0.000000
     20         19.934457   0.000000
     21         20.642267   0.000000
     22         23.162838   0.000000
     23         24.391012   0.000000
     24         27.212839   0.000000
 
  0.1666667E+00  0.1666667E+00  0.0000000E+00  0.4166667E-01
      1        -41.497324   1.000000
      2        -41.488011   1.000000
      3        -41.459322   1.000000
      4        -41.364517   1.000000
      5        -41.325437   1.000000
      6        -41.241285   1.000000
      7          4.006122   1.000000
      8          5.937045   1.000000
      9          6.403094   1.000000
     10          6.559161   1.000000
     11          7.428377   1.000000
     12          7.845168   1.000000
     13          8.515711   1.000000
     14          8.811559   1.000000
     15         10.023546   1.000000
     16         10.521375   1.000000
     17         10.893378   1.000000
     18         15.852567   0.000000
     19         16.930748   0.000000
     20         23.032591   0.000000
     21         23.665109   0.000000
     22         27.277021   0.000000
     23         29.120899   0.000000
     24         29.847892   0.000000
 
  0.3333333E+00  0.1666667E+00  0.0000000E+00  0.8333333E-01
      1        -41.618631   1.000000
      2        -41.582597   1.000000
      3        -41.438713   1.000000
      4        -41.386376   1.000000
      5        -41.383711   1.000000
      6        -41.278216   1.000000
      7          5.434694   1.000000
      8          5.553099   1.000000
      9          5.712202   1.000000
     10          7.372789   1.000000
     11          7.529043   1.000000
     12          8.018945   1.000000
     13          8.167826   1.000000
     14         10.023575   1.000000
     15         10.737345   1.000000
     16         11.147554   0.087586
     17         13.197622   0.000000
     18         17.138003   0.000000
     19         18.008413   0.000000
     20         20.330293   0.000000
     21         20.388107   0.000000
     22         24.252107   0.000000
     23         25.536597   0.000000
     24         26.976924   0.000000
 
  0.3333333E+00  0.3333333E+00  0.0000000E+00  0.1388889E-01
      1        -41.576145   1.000000
      2        -41.536117   1.000000
      3        -41.536116   1.000000
      4        -41.493363   1.000000
      5        -41.326321   1.000000
      6        -41.326319   1.000000
      7          5.743960   1.000000
      8          6.406784   1.000000
      9          6.406785   1.000000
     10          6.902984   1.000000
     11          7.480935   1.000000
     12          7.480937   1.000000
     13          8.595389   1.000000
     14         10.367873   1.000000
     15         10.367874   1.000000
     16         10.397474   1.000000
     17         15.536775   0.000000
     18         15.536776   0.000000
     19         16.990296   0.000000
     20         22.914357   0.000000
     21         23.187437   0.000000
     22         23.187437   0.000000
     23         23.797762   0.000000
     24         23.797763   0.000000
 
  0.0000000E+00  0.0000000E+00  0.2500000E+00  0.1388889E-01
      1        -41.496814   1.000000
      2        -41.285302   1.000000
      3        -41.285301   1.000000
      4        -41.264723   1.000000
      5        -41.257173   1.000000
      6        -41.257172   1.000000
      7          1.944307   1.000000
      8          3.967646   1.000000
      9          7.055202   1.000000
     10          7.689709   1.000000
     11          7.689709   1.000000
     12          7.968828   1.000000
     13          7.968828   1.000000
     14          8.619443   1.000000
     15          9.666488   1.000000
     16          9.666489   1.000000
     17         10.772155   1.000000
     18         10.772156   1.000000
     19         18.552594   0.000000
     20         25.253880   0.000000
     21         27.513335   0.000000
     22         27.625495   0.000000
     23         31.086774   0.000000
     24         31.086774   0.000000
 
  0.1666667E+00  0.0000000E+00  0.2500000E+00  0.8333333E-01
      1        -41.479651   1.000000
      2        -41.372356   1.000000
      3        -41.360752   1.000000
      4        -41.311554   1.000000
      5        -41.277781   1.000000
      6        -41.257026   1.000000
      7          2.868639   1.000000
      8          4.843499   1.000000
      9          7.021364   1.000000
     10          7.071828   1.000000
     11          7.315587   1.000000
     12          8.052115   1.000000
     13          8.335506   1.000000
     14          8.638226   1.000000
     15          9.426571   1.000000
     16          9.444949   1.000000
     17         10.813605   1.000000
     18         12.070700   0.000000
     19         18.986637   0.000000
     20         26.144696   0.000000
     21         27.314958   0.000000
     22         28.130683   0.000000
     23         29.486889   0.000000
     24         29.539691   0.000000
 
  0.3333333E+00  0.0000000E+00  0.2500000E+00  0.8333333E-01
      1        -41.582633   1.000000
      2        -41.550092   1.000000
      3        -41.395871   1.000000
      4        -41.362377   1.000000
      5        -41.320042   1.000000
      6        -41.268633   1.000000
      7          4.367301   1.000000
      8          5.216221   1.000000
      9          6.114212   1.000000
     10          6.612587   1.000000
     11          7.993996   1.000000
     12          8.554379   1.000000
     13          8.838625   1.000000
     14         10.060477   1.000000
     15         10.144990   1.000000
     16         10.422926   1.000000
     17         10.939479   0.999997
     18         13.624237   0.000000
     19         19.468507   0.000000
     20         21.702841   0.000000
     21         24.360802   0.000000
     22         26.110067   0.000000
     23         27.148215   0.000000
     24         28.813300   0.000000
 
  0.5000000E+00 -0.2775558E-16  0.2500000E+00  0.4166667E-01
      1        -41.672580   1.000000
      2        -41.640593   1.000000
      3        -41.387497   1.000000
      4        -41.358802   1.000000
      5        -41.341672   1.000000
      6        -41.284988   1.000000
      7          4.478897   1.000000
      8          4.834756   1.000000
      9          5.970264   1.000000
     10          6.369806   1.000000
     11          8.353621   1.000000
     12          8.572045   1.000000
     13         10.450335   1.000000
     14         10.497586   1.000000
     15         11.503371   0.000000
     16         11.631151   0.000000
     17         12.485655   0.000000
     18         14.410559   0.000000
     19         17.963986   0.000000
     20         18.154598   0.000000
     21         23.376936   0.000000
     22         24.256615   0.000000
     23         24.865591   0.000000
     24         28.234281   0.000000
 
  0.1666667E+00  0.1666667E+00  0.2500000E+00  0.8333333E-01
      1        -41.517733   1.000000
      2        -41.496121   1.000000
      3        -41.405684   1.000000
      4        -41.363702   1.000000
      5        -41.330877   1.000000
      6        -41.261687   1.000000
      7          4.317651   1.000000
      8          6.070062   1.000000
      9          6.127129   1.000000
     10          6.530366   1.000000
     11          7.387280   1.000000
     12          7.537891   1.000000
     13          8.567472   1.000000
     14          9.255087   1.000000
     15         10.085344   1.000000
     16         10.346456   1.000000
     17         10.919012   1.000000
     18         13.393176   0.000000
     19         19.856958   0.000000
     20         23.875054   0.000000
     21         24.153372   0.000000
     22         26.941274   0.000000
     23         27.497642   0.000000
     24         28.717715   0.000000
 
  0.3333333E+00  0.1666667E+00  0.2500000E+00  0.1666667E+00
      1        -41.622679   1.000000
      2        -41.597258   1.000000
      3        -41.438234   1.000000
      4        -41.398000   1.000000
      5        -41.351428   1.000000
      6        -41.280618   1.000000
      7          5.090638   1.000000
      8          5.691782   1.000000
      9          6.124400   1.000000
     10          6.642391   1.000000
     11          7.509678   1.000000
     12          8.453956   1.000000
     13          8.733221   1.000000
     14          9.985232   1.000000
     15         10.227097   1.000000
     16         11.398982   0.000000
     17         13.298993   0.000000
     18         15.908988   0.000000
     19         17.724460   0.000000
     20         20.581160   0.000000
     21         21.704014   0.000000
     22         24.235756   0.000000
     23         25.675934   0.000000
     24         26.941816   0.000000
 
  0.3333333E+00  0.3333333E+00  0.2500000E+00  0.2777778E-01
      1        -41.563906   1.000000
      2        -41.552124   1.000000
      3        -41.552123   1.000000
      4        -41.505465   1.000000
      5        -41.309505   1.000000
      6        -41.309504   1.000000
      7          6.046338   1.000000
      8          6.209148   1.000000
      9          6.209150   1.000000
     10          6.903619   1.000000
     11          7.495334   1.000000
     12          7.495334   1.000000
     13          8.558680   1.000000
     14          9.681510   1.000000
     15         10.669144   1.000000
     16         10.669146   1.000000
     17         16.045164   0.000000
     18         16.045164   0.000000
     19         17.989499   0.000000
     20         20.319671   0.000000
     21         20.319672   0.000000
     22         21.820686   0.000000
     23         26.757794   0.000000
     24         26.757795   0.000000
 
  0.0000000E+00  0.0000000E+00  0.5000000E+00  0.6944444E-02
      1        -41.381297   1.000000
      2        -41.381295   1.000000
      3        -41.271325   1.000000
      4        -41.271324   1.000000
      5        -41.271324   1.000000
      6        -41.271323   1.000000
      7          3.173306   1.000000
      8          3.173306   1.000000
      9          7.148877   1.000000
     10          7.148879   1.000000
     11          7.745273   1.000000
     12          7.745274   1.000000
     13          7.745275   1.000000
     14          7.745276   1.000000
     15         10.323513   1.000000
     16         10.323513   1.000000
     17         10.323516   1.000000
     18         10.323516   1.000000
     19         23.028020   0.000000
     20         23.028021   0.000000
     21         26.676309   0.000000
     22         26.676309   0.000000
     23         31.460020   0.000000
     24         31.460020   0.000000
 
  0.1666667E+00  0.0000000E+00  0.5000000E+00  0.4166667E-01
      1        -41.410042   1.000000
      2        -41.410041   1.000000
      3        -41.325316   1.000000
      4        -41.325315   1.000000
      5        -41.294720   1.000000
      6        -41.294719   1.000000
      7          4.055985   1.000000
      8          4.055986   1.000000
      9          6.729506   1.000000
     10          6.729508   1.000000
     11          7.508028   1.000000
     12          7.508030   1.000000
     13          8.389124   1.000000
     14          8.389126   1.000000
     15         10.209208   1.000000
     16         10.209211   1.000000
     17         10.556070   1.000000
     18         10.556072   1.000000
     19         23.480761   0.000000
     20         23.480762   0.000000
     21         27.187314   0.000000
     22         27.187315   0.000000
     23         29.192990   0.000000
     24         29.192990   0.000000
 
  0.3333333E+00  0.0000000E+00  0.5000000E+00  0.4166667E-01
      1        -41.576197   1.000000
      2        -41.576196   1.000000
      3        -41.340980   1.000000
      4        -41.340978   1.000000
      5        -41.322108   1.000000
      6        -41.322106   1.000000
      7          4.801622   1.000000
      8          4.801623   1.000000
      9          6.214885   1.000000
     10          6.214887   1.000000
     11          8.708353   1.000000
     12          8.708354   1.000000
     13          9.306362   1.000000
     14          9.306365   1.000000
     15         10.655221   1.000000
     16         10.655223   1.000000
     17         11.184449   0.008213
     18         11.184451   0.008212
     19         21.527438   0.000000
     20         21.527439   0.000000
     21         25.270028   0.000000
     22         25.270028   0.000000
     23         28.546255   0.000000
     24         28.546255   0.000000
 
  0.5000000E+00 -0.2775558E-16  0.5000000E+00  0.2083333E-01
      1        -41.665943   1.000000
      2        -41.665942   1.000000
      3        -41.364051   1.000000
      4        -41.364050   1.000000
      5        -41.311887   1.000000
      6        -41.311885   1.000000
      7          4.615158   1.000000
      8          4.615159   1.000000
      9          5.940634   1.000000
     10          5.940636   1.000000
     11          9.312124   1.000000
     12          9.312127   1.000000
     13         10.255830   1.000000
     14         10.255832   1.000000
     15         11.570500   0.000000
     16         11.570502   0.000000
     17         12.838813   0.000000
     18         12.838813   0.000000
     19         17.588691   0.000000
     20         17.588692   0.000000
     21         25.267635   0.000000
     22         25.267635   0.000000
     23         26.737833   0.000000
     24         26.737833   0.000000
 
  0.1666667E+00  0.1666667E+00  0.5000000E+00  0.4166667E-01
      1        -41.514066   1.000000
      2        -41.514065   1.000000
      3        -41.358106   1.000000
      4        -41.358104   1.000000
      5        -41.315729   1.000000
      6        -41.315727   1.000000
      7          5.132496   1.000000
      8          5.132497   1.000000
      9          6.584597   1.000000
     10          6.584599   1.000000
     11          7.125799   1.000000
     12          7.125801   1.000000
     13          9.075332   1.000000
     14          9.075334   1.000000
     15         10.711863   1.000000
     16         10.711865   1.000000
     17         11.080048   0.710070
     18         11.080051   0.710045
     19         23.464455   0.000000
     20         23.464456   0.000000
     21         25.454110   0.000000
     22         25.454111   0.000000
     23         26.543239   0.000000
     24         26.543240   0.000000
 
  0.3333333E+00  0.1666667E+00  0.5000000E+00  0.8333333E-01
      1        -41.619160   1.000000
      2        -41.619158   1.000000
      3        -41.421941   1.000000
      4        -41.421940   1.000000
      5        -41.303569   1.000000
      6        -41.303567   1.000000
      7          5.263666   1.000000
      8          5.263668   1.000000
      9          6.380445   1.000000
     10          6.380447   1.000000
     11          8.153376   1.000000
     12          8.153377   1.000000
     13          9.169709   1.000000
     14          9.169710   1.000000
     15         11.122211   0.261423
     16         11.122214   0.261396
     17         13.908337   0.000000
     18         13.908339   0.000000
     19         19.168737   0.000000
     20         19.168737   0.000000
     21         23.682488   0.000000
     22         23.682489   0.000000
     23         26.259668   0.000000
     24         26.259668   0.000000
 
  0.3333333E+00  0.3333333E+00  0.5000000E+00  0.1388889E-01
      1        -41.566418   1.000000
      2        -41.566417   1.000000
      3        -41.534928   1.000000
      4        -41.534926   1.000000
      5        -41.295668   1.000000
      6        -41.295667   1.000000
      7          6.034029   1.000000
      8          6.034031   1.000000
      9          6.661122   1.000000
     10          6.661123   1.000000
     11          7.511777   1.000000
     12          7.511779   1.000000
     13          8.745431   1.000000
     14          8.745433   1.000000
     15         10.929895   0.999999
     16         10.929898   0.999999
     17         17.668205   0.000000
     18         17.668206   0.000000
     19         17.732365   0.000000
     20         17.732365   0.000000
     21         19.932593   0.000000
     22         19.932595   0.000000
     23         28.644509   0.000000
     24         28.644509   0.000000
