 vasp.6.3.2 27Jun22 (build Aug 12 2022 00:53:59) complex                        
  
 executed on               tv2STD date 2024.11.30  16:02:50
 running   24 mpi-ranks, with    1 threads/rank
 distrk:  each k-point on   24 cores,    1 groups
 distr:  one band on NCORE=   1 cores,   24 groups


--------------------------------------------------------------------------------------------------------


 INCAR:
   SYSTEM = Pt-hcc
   NWRITE = 2    write-flag
   ISTART = 0    job   : 0-new, 1-cont, 2-samecut
   ICHARG = 2    charge: 0-wave, 1-file, 2-atom, >10-const
   INIWAV = 1    electr: 0-lowe 1-rand  2-diag
   ENCUT = 450.0     energy cutoff in eV
   PREC = Accurate      normal | accurate
   ADDGRID = .FALSE.  (use fine grid)
   NELM = 100     number of ELM steps
   EDIFF = 1E-06    energy stopping-criterion for ELM
   LREAL = .FALSE.      real-space projection (.FALSE., .TRUE., On, Auto)
   ALGO = Normal     Normal, Fast, Very_Fast
   LWAVE = .FALSE.
   LCHARG = .FALSE.
   NSW = 0       max number of geometry steps
   IBRION = -1     ionic relax: 0-MD, 1-quasi-Newton, 2-CG, 3-Damped MD
   EDIFFG = -0.02  force (eV/A) stopping-criterion for geometry steps
   ISIF = 2     (1:force\=y stress\=trace only ions\=y shape\=n volume\=n)
   ISYM = 1     (1-use symmetry, 0-no symmetry)
   ISMEAR = 0     (-1-Fermi, 1-Methfessel/Paxton)
   SIGMA = 0.05   broadening in eV

 POTCAR:    PAW_PBE Pt_pv 12Dec2005               
 POTCAR:    PAW_PBE Pt_pv 12Dec2005               
   SHA256 =  e5abf7e8cd8db70d0153315afc5ad66b6e3eeee29cc2d5b91b16730957c1d208 Pt_pv/POTCAR          
   COPYR  = (c) Copyright 12Dec2005 Georg Kresse                                                    
   COPYR  = This file is part of the software VASP. Any use, copying, and all other rights are regul
   COPYR  = If you do not have a valid VASP license, you may not use, copy or distribute this file. 
   VRHFIN =Pt: 5ps1d9                                                                               
   LEXCH  = PE                                                                                      
   EATOM  =  2428.2504 eV,  178.4714 Ry                                                             
                                                                                                    
   TITEL  = PAW_PBE Pt_pv 12Dec2005                                                                 
   LULTRA =        F    use ultrasoft PP ?                                                          
   IUNSCR =        1    unscreen: 0-lin 1-nonlin 2-no                                               
   RPACOR =    2.000    partial core radius                                                         
   POMASS =  195.080; ZVAL   =   16.000    mass and valenz                                          
   RCORE  =    2.200    outmost cutoff radius                                                       
   RWIGS  =    2.200; RWIGS  =    1.164    wigner-seitz radius (au A)                               
   ENMAX  =  294.607; ENMIN  =  220.955 eV                                                          
   ICORE  =        3    local potential                                                             
   LCOR   =        T    correct aug charges                                                         
   LPAW   =        T    paw PP                                                                      
   EAUG   =  527.014                                                                                
   DEXC   =    0.000                                                                                
   RMAX   =    2.247    core radius for proj-oper                                                   
   RAUG   =    1.300    factor for augmentation sphere                                              
   RDEP   =    2.279    radius for radial grids                                                     
   RDEPT  =    1.878    core radius for aug-charge                                                  
                                                                                                    
   Atomic configuration                                                                             
   16 entries                                                                                       
     n  l   j            E        occ.                                                              
     1  0  0.50    -78401.1885   2.0000                                                             
     2  0  0.50    -13770.7750   2.0000                                                             
     2  1  1.50    -11931.0468   6.0000                                                             
     3  0  0.50     -3234.7234   2.0000                                                             
     3  1  1.50     -2699.2216   6.0000                                                             
     3  2  2.50     -2119.5714  10.0000                                                             
     4  0  0.50      -695.1528   2.0000                                                             
     4  1  1.50      -519.6034   6.0000                                                             
     4  2  2.50      -306.6786  10.0000                                                             
     4  3  3.50       -70.1041  14.0000                                                             
     5  0  0.50      -101.7747   2.0000                                                             
     5  1  1.50       -55.9873   6.0000                                                             
     6  1  1.50        -6.8029   0.0000                                                             
     5  2  2.50        -6.1423   9.0000                                                             
     6  0  0.50        -5.6573   1.0000                                                             
     5  3  2.50        -1.3606   0.0000                                                             
   Description                                                                                      
     l       E           TYP  RCUT    TYP  RCUT                                                     
     1    -55.9873477     23  2.000                                                                 
     1     27.2116520     23  2.000                                                                 
     2     -6.1423404     23  2.200                                                                 
     2     -4.6754623     23  2.200                                                                 
     0     -5.6573207     23  2.200                                                                 
     0     47.6203910     23  2.200                                                                 
     3      6.8029130     23  2.200                                                                 
  local pseudopotential read in
  partial core-charges read in
  partial kinetic energy density read in
  atomic valenz-charges read in
  non local Contribution for L=           1  read in
    real space projection operators read in
  non local Contribution for L=           1  read in
    real space projection operators read in
  non local Contribution for L=           2  read in
    real space projection operators read in
  non local Contribution for L=           2  read in
    real space projection operators read in
  non local Contribution for L=           0  read in
    real space projection operators read in
  non local Contribution for L=           0  read in
    real space projection operators read in
    PAW grid and wavefunctions read in
 
   number of l-projection  operators is LMAX  =           6
   number of lm-projection operators is LMMAX =          18
 
  PAW_PBE Pt_pv 12Dec2005               :
 energy of atom  1       EATOM=-2428.2504
 kinetic energy error for atom=    0.0356 (will be added to EATOM!!)
 
 
 POSCAR: Pt
  positions in cartesian coordinates
  No initial velocities read in
 exchange correlation table for  LEXCH =        8
   RHO(1)=    0.500       N(1)  =     2000
   RHO(2)=  100.500       N(2)  =     4000
 


--------------------------------------------------------------------------------------------------------


 ion  position               nearest neighbor table
   1  0.000  0.000  0.000-
   2  0.333  0.667  0.500-
 
  LATTYP: Found a hexagonal cell.
 ALAT       =     2.7600000000
 C/A-ratio  =     1.7355072464
  
  Lattice vectors:
  
 A1 = (   2.7600000000,   0.0000000000,   0.0000000000)
 A2 = (  -1.3800000000,   2.3902301144,   0.0000000000)
 A3 = (   0.0000000000,   0.0000000000,   4.7900000000)


Analysis of symmetry for initial positions (statically):
=====================================================================
 Subroutine PRICEL returns:
 Original cell was already a primitive cell.
 

 Routine SETGRP: Setting up the symmetry group for a 
 hexagonal supercell.


 Subroutine GETGRP returns: Found 24 space group operations
 (whereof 12 operations were pure point group operations)
 out of a pool of 24 trial point group operations.


The static configuration has the point symmetry D_3h.
 The point group associated with its full space group is D_6h.


Analysis of symmetry for dynamics (positions and initial velocities):
=====================================================================
 Subroutine PRICEL returns:
 Original cell was already a primitive cell.
 

 Routine SETGRP: Setting up the symmetry group for a 
 hexagonal supercell.


 Subroutine GETGRP returns: Found 24 space group operations
 (whereof 12 operations were pure point group operations)
 out of a pool of 24 trial point group operations.


The dynamic configuration has the point symmetry D_3h.
 The point group associated with its full space group is D_6h.


 Subroutine INISYM returns: Found 24 space group operations
 (whereof 12 operations are pure point group operations),
 and found     1 'primitive' translations


----------------------------------------------------------------------------------------

                                     Primitive cell                                     

  volume of cell :      31.5998

  direct lattice vectors                    reciprocal lattice vectors
     2.760000000  0.000000000  0.000000000     0.362318841  0.209184880  0.000000000
    -1.380000000  2.390230114  0.000000000     0.000000000  0.418369760  0.000000000
     0.000000000  0.000000000  4.790000000     0.000000000  0.000000000  0.208768267

  length of vectors
     2.760000000  2.760000000  4.790000000     0.418369760  0.418369760  0.208768267

  position of ions in fractional coordinates (direct lattice)
     0.000000000  0.000000000  0.000000000
     0.333333333  0.666666667  0.500000000

  ion indices of the primitive-cell ions
   primitive index   ion index
                 1           1
                 2           2

----------------------------------------------------------------------------------------

 
 
 KPOINTS: Automatic mesh                          

Automatic generation of k-mesh.
 Grid dimensions read from file:
 generate k-points for:    6    6    4

 Generating k-lattice:

  Cartesian coordinates                     Fractional coordinates (reciprocal lattice)
     0.060386473  0.034864147  0.000000000     0.166666667  0.000000000  0.000000000
     0.000000000  0.069728293  0.000000000     0.000000000  0.166666667  0.000000000
     0.000000000  0.000000000  0.052192067     0.000000000  0.000000000  0.250000000

  Length of vectors
     0.069728293  0.069728293  0.052192067

  Shift w.r.t. Gamma in fractional coordinates (k-lattice)
     0.000000000  0.000000000  0.000000000

 
 Subroutine IBZKPT returns following result:
 ===========================================
 
 Found     21 irreducible k-points:
 
 Following reciprocal coordinates:
            Coordinates               Weight
  0.000000  0.000000  0.000000      1.000000
  0.166667  0.000000  0.000000      6.000000
  0.333333  0.000000  0.000000      6.000000
  0.500000 -0.000000  0.000000      3.000000
  0.166667  0.166667  0.000000      6.000000
  0.333333  0.166667  0.000000     12.000000
  0.333333  0.333333  0.000000      2.000000
  0.000000  0.000000  0.250000      2.000000
  0.166667  0.000000  0.250000     12.000000
  0.333333  0.000000  0.250000     12.000000
  0.500000 -0.000000  0.250000      6.000000
  0.166667  0.166667  0.250000     12.000000
  0.333333  0.166667  0.250000     24.000000
  0.333333  0.333333  0.250000      4.000000
  0.000000  0.000000  0.500000      1.000000
  0.166667  0.000000  0.500000      6.000000
  0.333333  0.000000  0.500000      6.000000
  0.500000 -0.000000  0.500000      3.000000
  0.166667  0.166667  0.500000      6.000000
  0.333333  0.166667  0.500000     12.000000
  0.333333  0.333333  0.500000      2.000000
 
 Following cartesian coordinates:
            Coordinates               Weight
  0.000000  0.000000  0.000000      1.000000
  0.060386  0.034864  0.000000      6.000000
  0.120773  0.069728  0.000000      6.000000
  0.181159  0.104592  0.000000      3.000000
  0.060386  0.104592  0.000000      6.000000
  0.120773  0.139457  0.000000     12.000000
  0.120773  0.209185  0.000000      2.000000
  0.000000  0.000000  0.052192      2.000000
  0.060386  0.034864  0.052192     12.000000
  0.120773  0.069728  0.052192     12.000000
  0.181159  0.104592  0.052192      6.000000
  0.060386  0.104592  0.052192     12.000000
  0.120773  0.139457  0.052192     24.000000
  0.120773  0.209185  0.052192      4.000000
  0.000000  0.000000  0.104384      1.000000
  0.060386  0.034864  0.104384      6.000000
  0.120773  0.069728  0.104384      6.000000
  0.181159  0.104592  0.104384      3.000000
  0.060386  0.104592  0.104384      6.000000
  0.120773  0.139457  0.104384     12.000000
  0.120773  0.209185  0.104384      2.000000
 


--------------------------------------------------------------------------------------------------------




 Dimension of arrays:
   k-points           NKPTS =     21   k-points in BZ     NKDIM =     21   number of bands    NBANDS=     24
   number of dos      NEDOS =    301   number of ions     NIONS =      2
   non local maximal  LDIM  =      6   non local SUM 2l+1 LMDIM =     18
   total plane-waves  NPLWV =  14400
   max r-space proj   IRMAX =      1   max aug-charges    IRDMAX=  15713
   dimension x,y,z NGX =    20 NGY =   20 NGZ =   36
   dimension x,y,z NGXF=    40 NGYF=   40 NGZF=   72
   support grid    NGXF=    40 NGYF=   40 NGZF=   72
   ions per type =               2
   NGX,Y,Z   is equivalent  to a cutoff of  12.05, 12.05, 12.49 a.u.
   NGXF,Y,Z  is equivalent  to a cutoff of  24.09, 24.09, 24.99 a.u.

 SYSTEM =  Pt-hcc                                  
 POSCAR =  Pt                                      

 Startparameter for this run:
   NWRITE =      2    write-flag & timer
   PREC   = accura    normal or accurate (medium, high low for compatibility)
   ISTART =      0    job   : 0-new  1-cont  2-samecut
   ICHARG =      2    charge: 1-file 2-atom 10-const
   ISPIN  =      1    spin polarized calculation?
   LNONCOLLINEAR =      F non collinear calculations
   LSORBIT =      F    spin-orbit coupling
   INIWAV =      1    electr: 0-lowe 1-rand  2-diag
   LASPH  =      F    aspherical Exc in radial PAW
 Electronic Relaxation 1
   ENCUT  =  450.0 eV  33.07 Ry    5.75 a.u.   4.77  4.77  8.29*2*pi/ulx,y,z
   ENINI  =  450.0     initial cutoff
   ENAUG  =  527.0 eV  augmentation charge cutoff
   NELM   =    100;   NELMIN=  2; NELMDL= -5     # of ELM steps 
   EDIFF  = 0.1E-05   stopping-criterion for ELM
   LREAL  =      F    real-space projection
   NLSPLINE    = F    spline interpolate recip. space projectors
   LCOMPAT=      F    compatible to vasp.4.4
   GGA_COMPAT  = T    GGA compatible to vasp.4.4-vasp.4.6
   LMAXPAW     = -100 max onsite density
   LMAXMIX     =    2 max onsite mixed and CHGCAR
   VOSKOWN=      0    Vosko Wilk Nusair interpolation
   ROPT   =    0.00000
 Ionic relaxation
   EDIFFG = -.2E-01   stopping-criterion for IOM
   NSW    =      0    number of steps for IOM
   NBLOCK =      1;   KBLOCK =      1    inner block; outer block 
   IBRION =     -1    ionic relax: 0-MD 1-quasi-New 2-CG
   NFREE  =      0    steps in history (QN), initial steepest desc. (CG)
   ISIF   =      2    stress and relaxation
   IWAVPR =     10    prediction:  0-non 1-charg 2-wave 3-comb
   ISYM   =      1    0-nonsym 1-usesym 2-fastsym
   LCORR  =      T    Harris-Foulkes like correction to forces

   POTIM  = 0.5000    time-step for ionic-motion
   TEIN   =    0.0    initial temperature
   TEBEG  =    0.0;   TEEND  =   0.0 temperature during run
   SMASS  =  -3.00    Nose mass-parameter (am)
   estimated Nose-frequenzy (Omega)   =  0.10E-29 period in steps = 0.13E+47 mass=  -0.174E-27a.u.
   SCALEE = 1.0000    scale energy and forces
   NPACO  =    256;   APACO  = 10.0  distance and # of slots for P.C.
   PSTRESS=    0.0 pullay stress

  Mass of Ions in am
   POMASS = 195.08
  Ionic Valenz
   ZVAL   =  16.00
  Atomic Wigner-Seitz radii
   RWIGS  =  -1.00
  virtual crystal weights 
   VCA    =   1.00
   NELECT =      32.0000    total number of electrons
   NUPDOWN=      -1.0000    fix difference up-down

 DOS related values:
   EMIN   =  10.00;   EMAX   =-10.00  energy-range for DOS
   EFERMI =   0.00
   ISMEAR =     0;   SIGMA  =   0.05  broadening in eV -4-tet -1-fermi 0-gaus

 Electronic relaxation 2 (details)
   IALGO  =     38    algorithm
   LDIAG  =      T    sub-space diagonalisation (order eigenvalues)
   LSUBROT=      F    optimize rotation matrix (better conditioning)
   TURBO    =      0    0=normal 1=particle mesh
   IRESTART =      0    0=no restart 2=restart with 2 vectors
   NREBOOT  =      0    no. of reboots
   NMIN     =      0    reboot dimension
   EREF     =   0.00    reference energy to select bands
   IMIX   =      4    mixing-type and parameters
     AMIX     =   0.40;   BMIX     =  1.00
     AMIX_MAG =   1.60;   BMIX_MAG =  1.00
     AMIN     =   0.10
     WC   =   100.;   INIMIX=   1;  MIXPRE=   1;  MAXMIX= -45

 Intra band minimization:
   WEIMIN = 0.0000     energy-eigenvalue tresh-hold
   EBREAK =  0.10E-07  absolut break condition
   DEPER  =   0.30     relativ break condition  

   TIME   =   0.40     timestep for ELM

  volume/ion in A,a.u.               =      15.80       106.62
  Fermi-wavevector in a.u.,A,eV,Ry     =   1.643981  3.106673 36.772093  2.702673
  Thomas-Fermi vector in A             =   2.734024
 
 Write flags
   LWAVE        =      F    write WAVECAR
   LDOWNSAMPLE  =      F    k-point downsampling of WAVECAR
   LCHARG       =      F    write CHGCAR
   LVTOT        =      F    write LOCPOT, total local potential
   LVHAR        =      F    write LOCPOT, Hartree potential only
   LELF         =      F    write electronic localiz. function (ELF)
   LORBIT       =      0    0 simple, 1 ext, 2 COOP (PROOUT), +10 PAW based schemes


 Dipole corrections
   LMONO  =      F    monopole corrections only (constant potential shift)
   LDIPOL =      F    correct potential (dipole corrections)
   IDIPOL =      0    1-x, 2-y, 3-z, 4-all directions 
   EPSILON=  1.0000000 bulk dielectric constant

 Exchange correlation treatment:
   GGA     =    --    GGA type
   LEXCH   =     8    internal setting for exchange type
   LIBXC   =     F    Libxc                    
   VOSKOWN =     0    Vosko Wilk Nusair interpolation
   LHFCALC =     F    Hartree Fock is set to
   LHFONE  =     F    Hartree Fock one center treatment
   AEXX    =    0.0000 exact exchange contribution

 Linear response parameters
   LEPSILON=     F    determine dielectric tensor
   LRPA    =     F    only Hartree local field effects (RPA)
   LNABLA  =     F    use nabla operator in PAW spheres
   LVEL    =     F    velocity operator in full k-point grid
   CSHIFT  =0.1000    complex shift for real part using Kramers Kronig
   OMEGAMAX=  -1.0    maximum frequency
   DEG_THRESHOLD= 0.2000000E-02 threshold for treating states as degnerate
   RTIME   =   -0.100 relaxation time in fs
  (WPLASMAI=    0.000 imaginary part of plasma frequency in eV, 0.658/RTIME)
   DFIELD  = 0.0000000 0.0000000 0.0000000 field for delta impulse in time
 
  Optional k-point grid parameters
   LKPOINTS_OPT  =     F    use optional k-point grid
   KPOINTS_OPT_MODE=     1    mode for optional k-point grid
 
 Orbital magnetization related:
   ORBITALMAG=     F  switch on orbital magnetization
   LCHIMAG   =     F  perturbation theory with respect to B field
   DQ        =  0.001000  dq finite difference perturbation B field
   LLRAUG    =     F  two centre corrections for induced B field



--------------------------------------------------------------------------------------------------------


 Static calculation
 charge density and potential will be updated during run
 non-spin polarized calculation
 Variant of blocked Davidson
 Davidson routine will perform the subspace rotation
 perform sub-space diagonalisation
    after iterative eigenvector-optimisation
 modified Broyden-mixing scheme, WC =      100.0
 initial mixing is a Kerker type mixing with AMIX =  0.4000 and BMIX =      1.0000
 Hartree-type preconditioning will be used
 using additional bands            8
 reciprocal scheme for non local part
 use partial core corrections
 calculate Harris-corrections to forces 
   (improved forces if not selfconsistent)
 use gradient corrections 
 use of overlap-Matrix (Vanderbilt PP)
 Gauss-broadening in eV      SIGMA  =   0.05


--------------------------------------------------------------------------------------------------------


  energy-cutoff  :      450.00
  volume of cell :       31.60
      direct lattice vectors                 reciprocal lattice vectors
     2.760000000  0.000000000  0.000000000     0.362318841  0.209184880  0.000000000
    -1.380000000  2.390230114  0.000000000     0.000000000  0.418369760  0.000000000
     0.000000000  0.000000000  4.790000000     0.000000000  0.000000000  0.208768267

  length of vectors
     2.760000000  2.760000000  4.790000000     0.418369760  0.418369760  0.208768267


 
 k-points in units of 2pi/SCALE and weight: Automatic mesh                          
   0.00000000  0.00000000  0.00000000       0.007
   0.06038647  0.03486415  0.00000000       0.042
   0.12077295  0.06972829  0.00000000       0.042
   0.18115942  0.10459244  0.00000000       0.021
   0.06038647  0.10459244  0.00000000       0.042
   0.12077295  0.13945659  0.00000000       0.083
   0.12077295  0.20918488  0.00000000       0.014
   0.00000000  0.00000000  0.05219207       0.014
   0.06038647  0.03486415  0.05219207       0.083
   0.12077295  0.06972829  0.05219207       0.083
   0.18115942  0.10459244  0.05219207       0.042
   0.06038647  0.10459244  0.05219207       0.083
   0.12077295  0.13945659  0.05219207       0.167
   0.12077295  0.20918488  0.05219207       0.028
   0.00000000  0.00000000  0.10438413       0.007
   0.06038647  0.03486415  0.10438413       0.042
   0.12077295  0.06972829  0.10438413       0.042
   0.18115942  0.10459244  0.10438413       0.021
   0.06038647  0.10459244  0.10438413       0.042
   0.12077295  0.13945659  0.10438413       0.083
   0.12077295  0.20918488  0.10438413       0.014
 
 k-points in reciprocal lattice and weights: Automatic mesh                          
   0.00000000  0.00000000  0.00000000       0.007
   0.16666667  0.00000000  0.00000000       0.042
   0.33333333  0.00000000  0.00000000       0.042
   0.50000000 -0.00000000  0.00000000       0.021
   0.16666667  0.16666667  0.00000000       0.042
   0.33333333  0.16666667  0.00000000       0.083
   0.33333333  0.33333333  0.00000000       0.014
   0.00000000  0.00000000  0.25000000       0.014
   0.16666667  0.00000000  0.25000000       0.083
   0.33333333  0.00000000  0.25000000       0.083
   0.50000000 -0.00000000  0.25000000       0.042
   0.16666667  0.16666667  0.25000000       0.083
   0.33333333  0.16666667  0.25000000       0.167
   0.33333333  0.33333333  0.25000000       0.028
   0.00000000  0.00000000  0.50000000       0.007
   0.16666667  0.00000000  0.50000000       0.042
   0.33333333  0.00000000  0.50000000       0.042
   0.50000000 -0.00000000  0.50000000       0.021
   0.16666667  0.16666667  0.50000000       0.042
   0.33333333  0.16666667  0.50000000       0.083
   0.33333333  0.33333333  0.50000000       0.014
 
 position of ions in fractional coordinates (direct lattice) 
   0.00000000  0.00000000  0.00000000
   0.33333333  0.66666667  0.50000000
 
 position of ions in cartesian coordinates  (Angst):
   0.00000000  0.00000000  0.00000000
   0.00000000  1.59348674  2.39500000
 


--------------------------------------------------------------------------------------------------------


 k-point   1 :   0.0000 0.0000 0.0000  plane waves:     713
 k-point   2 :   0.1667 0.0000 0.0000  plane waves:     690
 k-point   3 :   0.3333 0.0000 0.0000  plane waves:     692
 k-point   4 :   0.5000-0.0000 0.0000  plane waves:     700
 k-point   5 :   0.1667 0.1667 0.0000  plane waves:     689
 k-point   6 :   0.3333 0.1667 0.0000  plane waves:     681
 k-point   7 :   0.3333 0.3333 0.0000  plane waves:     681
 k-point   8 :   0.0000 0.0000 0.2500  plane waves:     689
 k-point   9 :   0.1667 0.0000 0.2500  plane waves:     683
 k-point  10 :   0.3333 0.0000 0.2500  plane waves:     689
 k-point  11 :   0.5000-0.0000 0.2500  plane waves:     688
 k-point  12 :   0.1667 0.1667 0.2500  plane waves:     685
 k-point  13 :   0.3333 0.1667 0.2500  plane waves:     684
 k-point  14 :   0.3333 0.3333 0.2500  plane waves:     675
 k-point  15 :   0.0000 0.0000 0.5000  plane waves:     688
 k-point  16 :   0.1667 0.0000 0.5000  plane waves:     684
 k-point  17 :   0.3333 0.0000 0.5000  plane waves:     680
 k-point  18 :   0.5000-0.0000 0.5000  plane waves:     676
 k-point  19 :   0.1667 0.1667 0.5000  plane waves:     682
 k-point  20 :   0.3333 0.1667 0.5000  plane waves:     694
 k-point  21 :   0.3333 0.3333 0.5000  plane waves:     690

 maximum and minimum number of plane-waves per node :       713      675

 maximum number of plane-waves:       713
 maximum index in each direction: 
   IXMAX=    4   IYMAX=    4   IZMAX=    8
   IXMIN=   -5   IYMIN=   -5   IZMIN=   -8


 serial   3D FFT for wavefunctions
 parallel 3D FFT for charge:
    minimum data exchange during FFTs selected (reduces bandwidth)


 total amount of memory used by VASP MPI-rank0    33607. kBytes
=======================================================================

   base      :      30000. kBytes
   nonl-proj :       2200. kBytes
   fftplans  :        254. kBytes
   grid      :        864. kBytes
   one-center:         31. kBytes
   wavefun   :        258. kBytes
 
     INWAV:  cpu time      0.0000: real time      0.0004
 Broyden mixing: mesh for mixing (old mesh)
   NGX =  9   NGY =  9   NGZ = 17
  (NGX  = 40   NGY  = 40   NGZ  = 72)
  gives a total of   1377 points

 initial charge density was supplied:
 charge density of overlapping atoms calculated
 number of electron      32.0000000 magnetization 
 keeping initial charge density in first step


--------------------------------------------------------------------------------------------------------


 Maximum index for augmentation-charges          730 (set IRDMAX)


--------------------------------------------------------------------------------------------------------


 First call to EWALD:  gamma=   0.561
 Maximum number of real-space cells 3x 3x 2
 Maximum number of reciprocal cells 2x 2x 4

    FEWALD:  cpu time      0.0015: real time      0.0015


--------------------------------------- Iteration      1(   1)  ---------------------------------------


    POTLOK:  cpu time      0.0040: real time      0.0040
    SETDIJ:  cpu time      0.0023: real time      0.0023
     EDDAV:  cpu time      0.0981: real time      0.0987
       DOS:  cpu time      0.0003: real time      0.0003
    --------------------------------------------
      LOOP:  cpu time      0.1047: real time      0.1054

 eigenvalue-minimisations  :  1008
 total energy-change (2. order) : 0.1440123E+03  (-0.2331564E+04)
 number of electron      32.0000000 magnetization 
 augmentation part       32.0000000 magnetization 

 Free energy of the ion-electron system (eV)
  ---------------------------------------------------
  alpha Z        PSCENC =       303.71314961
  Ewald energy   TEWEN  =     -4240.69024974
  -Hartree energ DENC   =      -819.48907223
  -exchange      EXHF   =         0.00000000
  -V(xc)+E(xc)   XCENC  =       127.32804754
  PAW double counting   =      4131.50523274    -4061.67189606
  entropy T*S    EENTRO =        -0.00747441
  eigenvalues    EBANDS =      -153.10513444
  atomic energy  EATOM  =      4856.42966544
  Solvation  Ediel_sol  =         0.00000000
  ---------------------------------------------------
  free energy    TOTEN  =       144.01226846 eV

  energy without entropy =      144.01974287  energy(sigma->0) =      144.01600567


--------------------------------------------------------------------------------------------------------




--------------------------------------- Iteration      1(   2)  ---------------------------------------


     EDDAV:  cpu time      0.1023: real time      0.1033
       DOS:  cpu time      0.0002: real time      0.0002
    --------------------------------------------
      LOOP:  cpu time      0.1025: real time      0.1035

 eigenvalue-minimisations  :  1032
 total energy-change (2. order) :-0.1554916E+03  (-0.1544884E+03)
 number of electron      32.0000000 magnetization 
 augmentation part       32.0000000 magnetization 

 Free energy of the ion-electron system (eV)
  ---------------------------------------------------
  alpha Z        PSCENC =       303.71314961
  Ewald energy   TEWEN  =     -4240.69024974
  -Hartree energ DENC   =      -819.48907223
  -exchange      EXHF   =         0.00000000
  -V(xc)+E(xc)   XCENC  =       127.32804754
  PAW double counting   =      4131.50523274    -4061.67189606
  entropy T*S    EENTRO =        -0.00504831
  eigenvalues    EBANDS =      -308.59914482
  atomic energy  EATOM  =      4856.42966544
  Solvation  Ediel_sol  =         0.00000000
  ---------------------------------------------------
  free energy    TOTEN  =       -11.47931582 eV

  energy without entropy =      -11.47426750  energy(sigma->0) =      -11.47679166


--------------------------------------------------------------------------------------------------------




--------------------------------------- Iteration      1(   3)  ---------------------------------------


     EDDAV:  cpu time      0.1517: real time      0.1526
       DOS:  cpu time      0.0002: real time      0.0002
    --------------------------------------------
      LOOP:  cpu time      0.1519: real time      0.1528

 eigenvalue-minimisations  :  1344
 total energy-change (2. order) :-0.1362715E+01  (-0.1356918E+01)
 number of electron      32.0000000 magnetization 
 augmentation part       32.0000000 magnetization 

 Free energy of the ion-electron system (eV)
  ---------------------------------------------------
  alpha Z        PSCENC =       303.71314961
  Ewald energy   TEWEN  =     -4240.69024974
  -Hartree energ DENC   =      -819.48907223
  -exchange      EXHF   =         0.00000000
  -V(xc)+E(xc)   XCENC  =       127.32804754
  PAW double counting   =      4131.50523274    -4061.67189606
  entropy T*S    EENTRO =        -0.00343430
  eigenvalues    EBANDS =      -309.96347365
  atomic energy  EATOM  =      4856.42966544
  Solvation  Ediel_sol  =         0.00000000
  ---------------------------------------------------
  free energy    TOTEN  =       -12.84203063 eV

  energy without entropy =      -12.83859633  energy(sigma->0) =      -12.84031348


--------------------------------------------------------------------------------------------------------




--------------------------------------- Iteration      1(   4)  ---------------------------------------


     EDDAV:  cpu time      0.1844: real time      0.1854
       DOS:  cpu time      0.0002: real time      0.0002
    --------------------------------------------
      LOOP:  cpu time      0.1846: real time      0.1856

 eigenvalue-minimisations  :  1536
 total energy-change (2. order) :-0.5103641E-02  (-0.5103533E-02)
 number of electron      32.0000000 magnetization 
 augmentation part       32.0000000 magnetization 

 Free energy of the ion-electron system (eV)
  ---------------------------------------------------
  alpha Z        PSCENC =       303.71314961
  Ewald energy   TEWEN  =     -4240.69024974
  -Hartree energ DENC   =      -819.48907223
  -exchange      EXHF   =         0.00000000
  -V(xc)+E(xc)   XCENC  =       127.32804754
  PAW double counting   =      4131.50523274    -4061.67189606
  entropy T*S    EENTRO =        -0.00343860
  eigenvalues    EBANDS =      -309.96857298
  atomic energy  EATOM  =      4856.42966544
  Solvation  Ediel_sol  =         0.00000000
  ---------------------------------------------------
  free energy    TOTEN  =       -12.84713427 eV

  energy without entropy =      -12.84369567  energy(sigma->0) =      -12.84541497


--------------------------------------------------------------------------------------------------------




--------------------------------------- Iteration      1(   5)  ---------------------------------------


     EDDAV:  cpu time      0.1582: real time      0.1591
       DOS:  cpu time      0.0002: real time      0.0002
    CHARGE:  cpu time      0.0149: real time      0.0149
    MIXING:  cpu time      0.0003: real time      0.0003
    --------------------------------------------
      LOOP:  cpu time      0.1736: real time      0.1745

 eigenvalue-minimisations  :  1368
 total energy-change (2. order) :-0.6504406E-06  (-0.6523747E-06)
 number of electron      31.9999996 magnetization 
 augmentation part        7.9424206 magnetization 

 Broyden mixing:
  rms(total) = 0.19623E+01    rms(broyden)= 0.19621E+01
  rms(prec ) = 0.21879E+01
  weight for this iteration     100.00

 Free energy of the ion-electron system (eV)
  ---------------------------------------------------
  alpha Z        PSCENC =       303.71314961
  Ewald energy   TEWEN  =     -4240.69024974
  -Hartree energ DENC   =      -819.48907223
  -exchange      EXHF   =         0.00000000
  -V(xc)+E(xc)   XCENC  =       127.32804754
  PAW double counting   =      4131.50523274    -4061.67189606
  entropy T*S    EENTRO =        -0.00343861
  eigenvalues    EBANDS =      -309.96857363
  atomic energy  EATOM  =      4856.42966544
  Solvation  Ediel_sol  =         0.00000000
  ---------------------------------------------------
  free energy    TOTEN  =       -12.84713493 eV

  energy without entropy =      -12.84369632  energy(sigma->0) =      -12.84541562


--------------------------------------------------------------------------------------------------------




--------------------------------------- Iteration      1(   6)  ---------------------------------------


    POTLOK:  cpu time      0.0034: real time      0.0035
    SETDIJ:  cpu time      0.0019: real time      0.0019
     EDDAV:  cpu time      0.1018: real time      0.1023
       DOS:  cpu time      0.0002: real time      0.0002
    CHARGE:  cpu time      0.0139: real time      0.0139
    MIXING:  cpu time      0.0003: real time      0.0003
    --------------------------------------------
      LOOP:  cpu time      0.1215: real time      0.1222

 eigenvalue-minimisations  :  1056
 total energy-change (2. order) : 0.6947625E+00  (-0.2652455E+00)
 number of electron      31.9999996 magnetization 
 augmentation part        8.1823778 magnetization 

 Broyden mixing:
  rms(total) = 0.58259E+00    rms(broyden)= 0.58257E+00
  rms(prec ) = 0.62333E+00
  weight for this iteration     100.00

 eigenvalues of (default mixing * dielectric matrix)
  average eigenvalue GAMMA=   1.3930
  1.3930

 Free energy of the ion-electron system (eV)
  ---------------------------------------------------
  alpha Z        PSCENC =       303.71314961
  Ewald energy   TEWEN  =     -4240.69024974
  -Hartree energ DENC   =      -787.72018218
  -exchange      EXHF   =         0.00000000
  -V(xc)+E(xc)   XCENC  =       125.96657979
  PAW double counting   =      4436.67318562    -4371.00772997
  entropy T*S    EENTRO =        -0.00687107
  eigenvalues    EBANDS =      -335.50991996
  atomic energy  EATOM  =      4856.42966544
  Solvation  Ediel_sol  =         0.00000000
  ---------------------------------------------------
  free energy    TOTEN  =       -12.15237246 eV

  energy without entropy =      -12.14550139  energy(sigma->0) =      -12.14893692


--------------------------------------------------------------------------------------------------------




--------------------------------------- Iteration      1(   7)  ---------------------------------------


    POTLOK:  cpu time      0.0034: real time      0.0036
    SETDIJ:  cpu time      0.0019: real time      0.0019
     EDDAV:  cpu time      0.1254: real time      0.1260
       DOS:  cpu time      0.0002: real time      0.0002
    CHARGE:  cpu time      0.0136: real time      0.0136
    MIXING:  cpu time      0.0003: real time      0.0003
    --------------------------------------------
      LOOP:  cpu time      0.1448: real time      0.1456

 eigenvalue-minimisations  :  1224
 total energy-change (2. order) : 0.3195787E-01  (-0.1378365E-01)
 number of electron      31.9999996 magnetization 
 augmentation part        8.2339814 magnetization 

 Broyden mixing:
  rms(total) = 0.18375E+00    rms(broyden)= 0.18375E+00
  rms(prec ) = 0.19629E+00
  weight for this iteration     100.00

 eigenvalues of (default mixing * dielectric matrix)
  average eigenvalue GAMMA=   1.9271
  1.1610  2.6931

 Free energy of the ion-electron system (eV)
  ---------------------------------------------------
  alpha Z        PSCENC =       303.71314961
  Ewald energy   TEWEN  =     -4240.69024974
  -Hartree energ DENC   =      -780.18591856
  -exchange      EXHF   =         0.00000000
  -V(xc)+E(xc)   XCENC  =       125.62262399
  PAW double counting   =      4552.39419983    -4487.76546074
  entropy T*S    EENTRO =        -0.00852743
  eigenvalues    EBANDS =      -341.62989700
  atomic energy  EATOM  =      4856.42966544
  Solvation  Ediel_sol  =         0.00000000
  ---------------------------------------------------
  free energy    TOTEN  =       -12.12041459 eV

  energy without entropy =      -12.11188716  energy(sigma->0) =      -12.11615087


--------------------------------------------------------------------------------------------------------




--------------------------------------- Iteration      1(   8)  ---------------------------------------


    POTLOK:  cpu time      0.0034: real time      0.0035
    SETDIJ:  cpu time      0.0019: real time      0.0019
     EDDAV:  cpu time      0.1025: real time      0.1031
       DOS:  cpu time      0.0002: real time      0.0002
    CHARGE:  cpu time      0.0135: real time      0.0136
    MIXING:  cpu time      0.0003: real time      0.0003
    --------------------------------------------
      LOOP:  cpu time      0.1217: real time      0.1225

 eigenvalue-minimisations  :  1080
 total energy-change (2. order) : 0.2425691E-02  (-0.8883257E-03)
 number of electron      31.9999996 magnetization 
 augmentation part        8.2244548 magnetization 

 Broyden mixing:
  rms(total) = 0.22830E-01    rms(broyden)= 0.22815E-01
  rms(prec ) = 0.24563E-01
  weight for this iteration     100.00

 eigenvalues of (default mixing * dielectric matrix)
  average eigenvalue GAMMA=   1.5581
  1.0778  1.1690  2.4274

 Free energy of the ion-electron system (eV)
  ---------------------------------------------------
  alpha Z        PSCENC =       303.71314961
  Ewald energy   TEWEN  =     -4240.69024974
  -Hartree energ DENC   =      -780.23439388
  -exchange      EXHF   =         0.00000000
  -V(xc)+E(xc)   XCENC  =       125.59811562
  PAW double counting   =      4623.14857482    -4558.51650465
  entropy T*S    EENTRO =        -0.00875023
  eigenvalues    EBANDS =      -341.55759590
  atomic energy  EATOM  =      4856.42966544
  Solvation  Ediel_sol  =         0.00000000
  ---------------------------------------------------
  free energy    TOTEN  =       -12.11798890 eV

  energy without entropy =      -12.10923867  energy(sigma->0) =      -12.11361378


--------------------------------------------------------------------------------------------------------




--------------------------------------- Iteration      1(   9)  ---------------------------------------


    POTLOK:  cpu time      0.0032: real time      0.0034
    SETDIJ:  cpu time      0.0019: real time      0.0019
     EDDAV:  cpu time      0.1343: real time      0.1350
       DOS:  cpu time      0.0002: real time      0.0002
    CHARGE:  cpu time      0.0135: real time      0.0136
    MIXING:  cpu time      0.0003: real time      0.0003
    --------------------------------------------
      LOOP:  cpu time      0.1535: real time      0.1544

 eigenvalue-minimisations  :  1248
 total energy-change (2. order) : 0.1722033E-03  (-0.1377862E-04)
 number of electron      31.9999996 magnetization 
 augmentation part        8.2251521 magnetization 

 Broyden mixing:
  rms(total) = 0.25991E-02    rms(broyden)= 0.25973E-02
  rms(prec ) = 0.33023E-02
  weight for this iteration     100.00

 eigenvalues of (default mixing * dielectric matrix)
  average eigenvalue GAMMA=   1.7902
  1.0132  1.1606  2.6582  2.3286

 Free energy of the ion-electron system (eV)
  ---------------------------------------------------
  alpha Z        PSCENC =       303.71314961
  Ewald energy   TEWEN  =     -4240.69024974
  -Hartree energ DENC   =      -780.32843530
  -exchange      EXHF   =         0.00000000
  -V(xc)+E(xc)   XCENC  =       125.60472632
  PAW double counting   =      4617.06703064    -4552.38673602
  entropy T*S    EENTRO =        -0.00868160
  eigenvalues    EBANDS =      -341.51828605
  atomic energy  EATOM  =      4856.42966544
  Solvation  Ediel_sol  =         0.00000000
  ---------------------------------------------------
  free energy    TOTEN  =       -12.11781669 eV

  energy without entropy =      -12.10913509  energy(sigma->0) =      -12.11347589


--------------------------------------------------------------------------------------------------------




--------------------------------------- Iteration      1(  10)  ---------------------------------------


    POTLOK:  cpu time      0.0032: real time      0.0034
    SETDIJ:  cpu time      0.0019: real time      0.0019
     EDDAV:  cpu time      0.1219: real time      0.1225
       DOS:  cpu time      0.0002: real time      0.0002
    CHARGE:  cpu time      0.0135: real time      0.0136
    MIXING:  cpu time      0.0003: real time      0.0003
    --------------------------------------------
      LOOP:  cpu time      0.1410: real time      0.1418

 eigenvalue-minimisations  :  1200
 total energy-change (2. order) :-0.1217731E-04  (-0.1523308E-05)
 number of electron      31.9999996 magnetization 
 augmentation part        8.2252268 magnetization 

 Broyden mixing:
  rms(total) = 0.76537E-03    rms(broyden)= 0.76508E-03
  rms(prec ) = 0.85202E-03
  weight for this iteration     100.00

 eigenvalues of (default mixing * dielectric matrix)
  average eigenvalue GAMMA=   1.6759
  2.6030  2.3030  0.9826  1.3076  1.1831

 Free energy of the ion-electron system (eV)
  ---------------------------------------------------
  alpha Z        PSCENC =       303.71314961
  Ewald energy   TEWEN  =     -4240.69024974
  -Hartree energ DENC   =      -780.38203391
  -exchange      EXHF   =         0.00000000
  -V(xc)+E(xc)   XCENC  =       125.60669180
  PAW double counting   =      4620.34166260    -4555.60960885
  entropy T*S    EENTRO =        -0.00865963
  eigenvalues    EBANDS =      -341.51844620
  atomic energy  EATOM  =      4856.42966544
  Solvation  Ediel_sol  =         0.00000000
  ---------------------------------------------------
  free energy    TOTEN  =       -12.11782887 eV

  energy without entropy =      -12.10916924  energy(sigma->0) =      -12.11349906


--------------------------------------------------------------------------------------------------------




--------------------------------------- Iteration      1(  11)  ---------------------------------------


    POTLOK:  cpu time      0.0032: real time      0.0034
    SETDIJ:  cpu time      0.0019: real time      0.0019
     EDDAV:  cpu time      0.0831: real time      0.0835
       DOS:  cpu time      0.0002: real time      0.0002
    --------------------------------------------
      LOOP:  cpu time      0.0884: real time      0.0890

 eigenvalue-minimisations  :   720
 total energy-change (2. order) : 0.2670822E-06  (-0.3200396E-07)
 number of electron      31.9999996 magnetization 
 augmentation part        8.2252268 magnetization 

 Free energy of the ion-electron system (eV)
  ---------------------------------------------------
  alpha Z        PSCENC =       303.71314961
  Ewald energy   TEWEN  =     -4240.69024974
  -Hartree energ DENC   =      -780.38629852
  -exchange      EXHF   =         0.00000000
  -V(xc)+E(xc)   XCENC  =       125.60685376
  PAW double counting   =      4620.22183471    -4555.48613185
  entropy T*S    EENTRO =        -0.00866241
  eigenvalues    EBANDS =      -341.51798961
  atomic energy  EATOM  =      4856.42966544
  Solvation  Ediel_sol  =         0.00000000
  ---------------------------------------------------
  free energy    TOTEN  =       -12.11782860 eV

  energy without entropy =      -12.10916620  energy(sigma->0) =      -12.11349740


--------------------------------------------------------------------------------------------------------




 average (electrostatic) potential at core
  the test charge radii are     0.9952
  (the norm of the test charge is              1.0000)
       1 -89.5012       2 -89.5012
 
 
 
 E-fermi :  11.0996     XC(G=0): -13.7008     alpha+bet :-16.6031

 Fermi energy:        11.0996205106

 k-point     1 :       0.0000    0.0000    0.0000
  band No.  band energies     occupation 
      1     -41.5447      2.00000
      2     -41.2919      2.00000
      3     -41.2919      2.00000
      4     -41.2517      2.00000
      5     -41.2517      2.00000
      6     -41.2164      2.00000
      7       1.4232      2.00000
      8       4.0802      2.00000
      9       7.1649      2.00000
     10       7.7423      2.00000
     11       7.7423      2.00000
     12       8.1080      2.00000
     13       8.1080      2.00000
     14       9.3123      2.00000
     15       9.3123      2.00000
     16      10.3930      2.00000
     17      10.8907      2.00000
     18      10.8907      2.00000
     19      15.7649      0.00000
     20      26.2612      0.00000
     21      26.8057      0.00000
     22      28.4143      0.00000
     23      32.1373      0.00000
     24      32.1373      0.00000

 k-point     2 :       0.1667    0.0000    0.0000
  band No.  band energies     occupation 
      1     -41.5126      2.00000
      2     -41.3856      2.00000
      3     -41.3475      2.00000
      4     -41.3184      2.00000
      5     -41.2709      2.00000
      6     -41.2239      2.00000
      7       2.3850      2.00000
      8       4.8902      2.00000
      9       6.9710      2.00000
     10       7.5865      2.00000
     11       7.8019      2.00000
     12       8.0979      2.00000
     13       8.4898      2.00000
     14       8.8161      2.00000
     15       8.9011      2.00000
     16       8.9509      2.00000
     17      11.0224      1.97102
     18      14.0801      0.00000
     19      15.6849      0.00000
     20      26.1654      0.00000
     21      27.9911      0.00000
     22      28.7314      0.00000
     23      29.0398      0.00000
     24      29.5395      0.00000

 k-point     3 :       0.3333    0.0000    0.0000
  band No.  band energies     occupation 
      1     -41.5745      2.00000
      2     -41.5339      2.00000
      3     -41.4383      2.00000
      4     -41.3711      2.00000
      5     -41.3118      2.00000
      6     -41.2504      2.00000
      7       4.2860      2.00000
      8       5.1574      2.00000
      9       6.0579      2.00000
     10       7.2855      2.00000
     11       7.8223      2.00000
     12       8.1217      2.00000
     13       8.2674      2.00000
     14      10.0256      2.00000
     15      10.3123      2.00000
     16      10.5151      2.00000
     17      11.1122      0.72205
     18      15.9861      0.00000
     19      17.7278      0.00000
     20      20.1685      0.00000
     21      25.1295      0.00000
     22      25.8915      0.00000
     23      26.5005      0.00000
     24      28.6342      0.00000

 k-point     4 :       0.5000   -0.0000    0.0000
  band No.  band energies     occupation 
      1     -41.6682      2.00000
      2     -41.6254      2.00000
      3     -41.3973      2.00000
      4     -41.3862      2.00000
      5     -41.3322      2.00000
      6     -41.2790      2.00000
      7       4.7477      2.00000
      8       4.8156      2.00000
      9       5.4498      2.00000
     10       7.7597      2.00000
     11       8.0006      2.00000
     12       8.1807      2.00000
     13       8.5247      2.00000
     14      11.1156      0.65117
     15      11.4550      0.00000
     16      11.6556      0.00000
     17      13.3993      0.00000
     18      14.8872      0.00000
     19      18.4207      0.00000
     20      19.9345      0.00000
     21      20.6423      0.00000
     22      23.1628      0.00000
     23      24.3910      0.00000
     24      27.2128      0.00000

 k-point     5 :       0.1667    0.1667    0.0000
  band No.  band energies     occupation 
      1     -41.4973      2.00000
      2     -41.4880      2.00000
      3     -41.4593      2.00000
      4     -41.3645      2.00000
      5     -41.3254      2.00000
      6     -41.2413      2.00000
      7       4.0061      2.00000
      8       5.9370      2.00000
      9       6.4031      2.00000
     10       6.5592      2.00000
     11       7.4284      2.00000
     12       7.8452      2.00000
     13       8.5157      2.00000
     14       8.8116      2.00000
     15      10.0235      2.00000
     16      10.5214      2.00000
     17      10.8934      2.00000
     18      15.8526      0.00000
     19      16.9307      0.00000
     20      23.0326      0.00000
     21      23.6651      0.00000
     22      27.2770      0.00000
     23      29.1209      0.00000
     24      29.8479      0.00000

 k-point     6 :       0.3333    0.1667    0.0000
  band No.  band energies     occupation 
      1     -41.6186      2.00000
      2     -41.5826      2.00000
      3     -41.4387      2.00000
      4     -41.3864      2.00000
      5     -41.3837      2.00000
      6     -41.2782      2.00000
      7       5.4347      2.00000
      8       5.5531      2.00000
      9       5.7122      2.00000
     10       7.3728      2.00000
     11       7.5290      2.00000
     12       8.0189      2.00000
     13       8.1678      2.00000
     14      10.0236      2.00000
     15      10.7373      2.00000
     16      11.1476      0.17517
     17      13.1976      0.00000
     18      17.1380      0.00000
     19      18.0084      0.00000
     20      20.3303      0.00000
     21      20.3881      0.00000
     22      24.2521      0.00000
     23      25.5366      0.00000
     24      26.9769      0.00000

 k-point     7 :       0.3333    0.3333    0.0000
  band No.  band energies     occupation 
      1     -41.5761      2.00000
      2     -41.5361      2.00000
      3     -41.5361      2.00000
      4     -41.4934      2.00000
      5     -41.3263      2.00000
      6     -41.3263      2.00000
      7       5.7440      2.00000
      8       6.4068      2.00000
      9       6.4068      2.00000
     10       6.9030      2.00000
     11       7.4809      2.00000
     12       7.4809      2.00000
     13       8.5954      2.00000
     14      10.3679      2.00000
     15      10.3679      2.00000
     16      10.3975      2.00000
     17      15.5368      0.00000
     18      15.5368      0.00000
     19      16.9903      0.00000
     20      22.9144      0.00000
     21      23.1874      0.00000
     22      23.1874      0.00000
     23      23.7978      0.00000
     24      23.7978      0.00000

 k-point     8 :       0.0000    0.0000    0.2500
  band No.  band energies     occupation 
      1     -41.4968      2.00000
      2     -41.2853      2.00000
      3     -41.2853      2.00000
      4     -41.2647      2.00000
      5     -41.2572      2.00000
      6     -41.2572      2.00000
      7       1.9443      2.00000
      8       3.9676      2.00000
      9       7.0552      2.00000
     10       7.6897      2.00000
     11       7.6897      2.00000
     12       7.9688      2.00000
     13       7.9688      2.00000
     14       8.6194      2.00000
     15       9.6665      2.00000
     16       9.6665      2.00000
     17      10.7722      2.00000
     18      10.7722      2.00000
     19      18.5526      0.00000
     20      25.2539      0.00000
     21      27.5133      0.00000
     22      27.6255      0.00000
     23      31.0868      0.00000
     24      31.0868      0.00000

 k-point     9 :       0.1667    0.0000    0.2500
  band No.  band energies     occupation 
      1     -41.4797      2.00000
      2     -41.3724      2.00000
      3     -41.3608      2.00000
      4     -41.3116      2.00000
      5     -41.2778      2.00000
      6     -41.2570      2.00000
      7       2.8686      2.00000
      8       4.8435      2.00000
      9       7.0214      2.00000
     10       7.0718      2.00000
     11       7.3156      2.00000
     12       8.0521      2.00000
     13       8.3355      2.00000
     14       8.6382      2.00000
     15       9.4266      2.00000
     16       9.4449      2.00000
     17      10.8136      2.00000
     18      12.0707      0.00000
     19      18.9866      0.00000
     20      26.1447      0.00000
     21      27.3150      0.00000
     22      28.1307      0.00000
     23      29.4869      0.00000
     24      29.5397      0.00000

 k-point    10 :       0.3333    0.0000    0.2500
  band No.  band energies     occupation 
      1     -41.5826      2.00000
      2     -41.5501      2.00000
      3     -41.3959      2.00000
      4     -41.3624      2.00000
      5     -41.3200      2.00000
      6     -41.2686      2.00000
      7       4.3673      2.00000
      8       5.2162      2.00000
      9       6.1142      2.00000
     10       6.6126      2.00000
     11       7.9940      2.00000
     12       8.5544      2.00000
     13       8.8386      2.00000
     14      10.0605      2.00000
     15      10.1450      2.00000
     16      10.4229      2.00000
     17      10.9395      1.99999
     18      13.6242      0.00000
     19      19.4685      0.00000
     20      21.7028      0.00000
     21      24.3608      0.00000
     22      26.1101      0.00000
     23      27.1482      0.00000
     24      28.8133      0.00000

 k-point    11 :       0.5000   -0.0000    0.2500
  band No.  band energies     occupation 
      1     -41.6726      2.00000
      2     -41.6406      2.00000
      3     -41.3875      2.00000
      4     -41.3588      2.00000
      5     -41.3417      2.00000
      6     -41.2850      2.00000
      7       4.4789      2.00000
      8       4.8348      2.00000
      9       5.9703      2.00000
     10       6.3698      2.00000
     11       8.3536      2.00000
     12       8.5720      2.00000
     13      10.4503      2.00000
     14      10.4976      2.00000
     15      11.5034      0.00000
     16      11.6312      0.00000
     17      12.4857      0.00000
     18      14.4106      0.00000
     19      17.9640      0.00000
     20      18.1546      0.00000
     21      23.3769      0.00000
     22      24.2566      0.00000
     23      24.8656      0.00000
     24      28.2343      0.00000

 k-point    12 :       0.1667    0.1667    0.2500
  band No.  band energies     occupation 
      1     -41.5177      2.00000
      2     -41.4961      2.00000
      3     -41.4057      2.00000
      4     -41.3637      2.00000
      5     -41.3309      2.00000
      6     -41.2617      2.00000
      7       4.3177      2.00000
      8       6.0701      2.00000
      9       6.1271      2.00000
     10       6.5304      2.00000
     11       7.3873      2.00000
     12       7.5379      2.00000
     13       8.5675      2.00000
     14       9.2551      2.00000
     15      10.0853      2.00000
     16      10.3465      2.00000
     17      10.9190      2.00000
     18      13.3932      0.00000
     19      19.8570      0.00000
     20      23.8751      0.00000
     21      24.1534      0.00000
     22      26.9413      0.00000
     23      27.4976      0.00000
     24      28.7177      0.00000

 k-point    13 :       0.3333    0.1667    0.2500
  band No.  band energies     occupation 
      1     -41.6227      2.00000
      2     -41.5973      2.00000
      3     -41.4382      2.00000
      4     -41.3980      2.00000
      5     -41.3514      2.00000
      6     -41.2806      2.00000
      7       5.0906      2.00000
      8       5.6918      2.00000
      9       6.1244      2.00000
     10       6.6424      2.00000
     11       7.5097      2.00000
     12       8.4540      2.00000
     13       8.7332      2.00000
     14       9.9852      2.00000
     15      10.2271      2.00000
     16      11.3990      0.00000
     17      13.2990      0.00000
     18      15.9090      0.00000
     19      17.7245      0.00000
     20      20.5812      0.00000
     21      21.7040      0.00000
     22      24.2358      0.00000
     23      25.6759      0.00000
     24      26.9418      0.00000

 k-point    14 :       0.3333    0.3333    0.2500
  band No.  band energies     occupation 
      1     -41.5639      2.00000
      2     -41.5521      2.00000
      3     -41.5521      2.00000
      4     -41.5055      2.00000
      5     -41.3095      2.00000
      6     -41.3095      2.00000
      7       6.0463      2.00000
      8       6.2091      2.00000
      9       6.2091      2.00000
     10       6.9036      2.00000
     11       7.4953      2.00000
     12       7.4953      2.00000
     13       8.5587      2.00000
     14       9.6815      2.00000
     15      10.6691      2.00000
     16      10.6691      2.00000
     17      16.0452      0.00000
     18      16.0452      0.00000
     19      17.9895      0.00000
     20      20.3197      0.00000
     21      20.3197      0.00000
     22      21.8207      0.00000
     23      26.7578      0.00000
     24      26.7578      0.00000

 k-point    15 :       0.0000    0.0000    0.5000
  band No.  band energies     occupation 
      1     -41.3813      2.00000
      2     -41.3813      2.00000
      3     -41.2713      2.00000
      4     -41.2713      2.00000
      5     -41.2713      2.00000
      6     -41.2713      2.00000
      7       3.1733      2.00000
      8       3.1733      2.00000
      9       7.1489      2.00000
     10       7.1489      2.00000
     11       7.7453      2.00000
     12       7.7453      2.00000
     13       7.7453      2.00000
     14       7.7453      2.00000
     15      10.3235      2.00000
     16      10.3235      2.00000
     17      10.3235      2.00000
     18      10.3235      2.00000
     19      23.0280      0.00000
     20      23.0280      0.00000
     21      26.6763      0.00000
     22      26.6763      0.00000
     23      31.4600      0.00000
     24      31.4600      0.00000

 k-point    16 :       0.1667    0.0000    0.5000
  band No.  band energies     occupation 
      1     -41.4100      2.00000
      2     -41.4100      2.00000
      3     -41.3253      2.00000
      4     -41.3253      2.00000
      5     -41.2947      2.00000
      6     -41.2947      2.00000
      7       4.0560      2.00000
      8       4.0560      2.00000
      9       6.7295      2.00000
     10       6.7295      2.00000
     11       7.5080      2.00000
     12       7.5080      2.00000
     13       8.3891      2.00000
     14       8.3891      2.00000
     15      10.2092      2.00000
     16      10.2092      2.00000
     17      10.5561      2.00000
     18      10.5561      2.00000
     19      23.4808      0.00000
     20      23.4808      0.00000
     21      27.1873      0.00000
     22      27.1873      0.00000
     23      29.1930      0.00000
     24      29.1930      0.00000

 k-point    17 :       0.3333    0.0000    0.5000
  band No.  band energies     occupation 
      1     -41.5762      2.00000
      2     -41.5762      2.00000
      3     -41.3410      2.00000
      4     -41.3410      2.00000
      5     -41.3221      2.00000
      6     -41.3221      2.00000
      7       4.8016      2.00000
      8       4.8016      2.00000
      9       6.2149      2.00000
     10       6.2149      2.00000
     11       8.7084      2.00000
     12       8.7084      2.00000
     13       9.3064      2.00000
     14       9.3064      2.00000
     15      10.6552      2.00000
     16      10.6552      2.00000
     17      11.1844      0.01643
     18      11.1845      0.01642
     19      21.5274      0.00000
     20      21.5274      0.00000
     21      25.2700      0.00000
     22      25.2700      0.00000
     23      28.5463      0.00000
     24      28.5463      0.00000

 k-point    18 :       0.5000   -0.0000    0.5000
  band No.  band energies     occupation 
      1     -41.6659      2.00000
      2     -41.6659      2.00000
      3     -41.3641      2.00000
      4     -41.3640      2.00000
      5     -41.3119      2.00000
      6     -41.3119      2.00000
      7       4.6152      2.00000
      8       4.6152      2.00000
      9       5.9406      2.00000
     10       5.9406      2.00000
     11       9.3121      2.00000
     12       9.3121      2.00000
     13      10.2558      2.00000
     14      10.2558      2.00000
     15      11.5705      0.00000
     16      11.5705      0.00000
     17      12.8388      0.00000
     18      12.8388      0.00000
     19      17.5887      0.00000
     20      17.5887      0.00000
     21      25.2676      0.00000
     22      25.2676      0.00000
     23      26.7378      0.00000
     24      26.7378      0.00000

 k-point    19 :       0.1667    0.1667    0.5000
  band No.  band energies     occupation 
      1     -41.5141      2.00000
      2     -41.5141      2.00000
      3     -41.3581      2.00000
      4     -41.3581      2.00000
      5     -41.3157      2.00000
      6     -41.3157      2.00000
      7       5.1325      2.00000
      8       5.1325      2.00000
      9       6.5846      2.00000
     10       6.5846      2.00000
     11       7.1258      2.00000
     12       7.1258      2.00000
     13       9.0753      2.00000
     14       9.0753      2.00000
     15      10.7119      2.00000
     16      10.7119      2.00000
     17      11.0800      1.42014
     18      11.0801      1.42009
     19      23.4645      0.00000
     20      23.4645      0.00000
     21      25.4541      0.00000
     22      25.4541      0.00000
     23      26.5432      0.00000
     24      26.5432      0.00000

 k-point    20 :       0.3333    0.1667    0.5000
  band No.  band energies     occupation 
      1     -41.6192      2.00000
      2     -41.6192      2.00000
      3     -41.4219      2.00000
      4     -41.4219      2.00000
      5     -41.3036      2.00000
      6     -41.3036      2.00000
      7       5.2637      2.00000
      8       5.2637      2.00000
      9       6.3804      2.00000
     10       6.3804      2.00000
     11       8.1534      2.00000
     12       8.1534      2.00000
     13       9.1697      2.00000
     14       9.1697      2.00000
     15      11.1222      0.52285
     16      11.1222      0.52279
     17      13.9083      0.00000
     18      13.9083      0.00000
     19      19.1687      0.00000
     20      19.1687      0.00000
     21      23.6825      0.00000
     22      23.6825      0.00000
     23      26.2597      0.00000
     24      26.2597      0.00000

 k-point    21 :       0.3333    0.3333    0.5000
  band No.  band energies     occupation 
      1     -41.5664      2.00000
      2     -41.5664      2.00000
      3     -41.5349      2.00000
      4     -41.5349      2.00000
      5     -41.2957      2.00000
      6     -41.2957      2.00000
      7       6.0340      2.00000
      8       6.0340      2.00000
      9       6.6611      2.00000
     10       6.6611      2.00000
     11       7.5118      2.00000
     12       7.5118      2.00000
     13       8.7454      2.00000
     14       8.7454      2.00000
     15      10.9299      2.00000
     16      10.9299      2.00000
     17      17.6682      0.00000
     18      17.6682      0.00000
     19      17.7324      0.00000
     20      17.7324      0.00000
     21      19.9326      0.00000
     22      19.9326      0.00000
     23      28.6445      0.00000
     24      28.6445      0.00000


--------------------------------------------------------------------------------------------------------


 soft charge-density along one line, spin component           1
         0         1         2         3         4         5         6         7         8         9
 total charge-density along one line
 
 pseudopotential strength for first ion, spin component:           1
-31.678  -0.000   0.000  10.735   0.000  -0.000  -0.000  -0.000
 -0.000 -31.641  -0.000   0.000  10.698   0.000   0.000   0.000
  0.000  -0.000 -31.678  -0.000   0.000  10.735  -0.000   0.000
 10.735   0.000  -0.000  16.249  -0.000   0.000   0.000   0.000
  0.000  10.698   0.000  -0.000  16.264  -0.000  -0.000  -0.000
 -0.000   0.000  10.735   0.000  -0.000  16.249  -0.000  -0.000
 -0.000   0.000  -0.000   0.000  -0.000  -0.000  -3.713   0.000
 -0.000   0.000   0.000   0.000  -0.000  -0.000   0.000  -3.683
 -0.000  -0.000   0.000   0.000   0.000  -0.000  -0.000   0.000
  0.000  -0.000   0.000  -0.000   0.000  -0.000  -0.000   0.000
 -0.000   0.000  -0.000  -0.000  -0.000   0.000  -0.000   0.000
 -0.000   0.000  -0.000   0.000  -0.000  -0.000  -3.942   0.000
 -0.000   0.000   0.000   0.000  -0.000  -0.000   0.000  -3.909
 -0.000  -0.000   0.000   0.000   0.000  -0.000  -0.000   0.000
  0.000  -0.000   0.000  -0.000   0.000  -0.000  -0.000   0.000
 -0.000   0.000  -0.000  -0.000  -0.000   0.000  -0.000   0.000
 -0.000   0.000   0.000  -0.000   0.000   0.000  -0.000   0.000
  0.000  -0.000  -0.000   0.000  -0.000  -0.000   0.000  -0.000
 total augmentation occupancy for first ion, spin component:           1
  2.002  -0.000  -0.000  -0.021   0.000   0.000   0.000   0.000  -0.000   0.000   0.004   0.000   0.000   0.000   0.000  -0.004
 -0.000   2.002   0.000  -0.000  -0.019  -0.000   0.000   0.000   0.000   0.000  -0.000   0.000  -0.000   0.000   0.000  -0.000
 -0.000   0.000   2.002   0.000  -0.000  -0.021   0.004  -0.000   0.000  -0.000   0.000  -0.004   0.000  -0.000  -0.000  -0.000
 -0.021  -0.000   0.000   0.050  -0.000   0.000  -0.000   0.000   0.000   0.000  -0.025   0.000  -0.000  -0.000   0.000   0.023
 -0.000  -0.019  -0.000  -0.000   0.042   0.000  -0.000   0.000   0.000  -0.000   0.000   0.000   0.000   0.000   0.000  -0.000
  0.000  -0.000  -0.021   0.000   0.000   0.050  -0.025   0.000  -0.000   0.000   0.000   0.023   0.000   0.000   0.000   0.000
  0.000   0.000   0.004  -0.000   0.000  -0.025   4.944   0.000   0.000  -0.000   0.000  -2.675   0.000  -0.000   0.000  -0.000
  0.000  -0.000  -0.000   0.000  -0.000   0.000  -0.000   4.228  -0.000  -0.000   0.000   0.000  -2.296   0.000   0.000   0.000
 -0.000   0.000   0.000   0.000   0.000  -0.000   0.000  -0.000   4.936   0.000  -0.000  -0.000   0.000  -2.646   0.000   0.000
  0.000   0.000   0.000   0.000  -0.000   0.000   0.000   0.000  -0.000   4.228   0.000  -0.000   0.000   0.000  -2.296   0.000
  0.004  -0.000  -0.000  -0.025   0.000   0.000   0.000  -0.000  -0.000   0.000   4.944  -0.000  -0.000   0.000   0.000  -2.675
 -0.000   0.000  -0.004   0.000   0.000   0.023  -2.675   0.000  -0.000   0.000  -0.000   2.155  -0.000   0.000   0.000   0.000
  0.000  -0.000   0.000  -0.000  -0.000   0.000   0.000  -2.296   0.000   0.000   0.000   0.000   2.201  -0.000  -0.000  -0.000
  0.000   0.000   0.000  -0.000   0.000   0.000  -0.000  -0.000  -2.646   0.000   0.000   0.000   0.000   2.062  -0.000  -0.000
  0.000  -0.000   0.000   0.000   0.000   0.000  -0.000   0.000   0.000  -2.296  -0.000   0.000  -0.000   0.000   2.201   0.000
 -0.004  -0.000  -0.000   0.023  -0.000   0.000  -0.000   0.000   0.000  -0.000  -2.675   0.000  -0.000  -0.000   0.000   2.155
  0.000   0.000  -0.000   0.000   0.000   0.000  -0.000   0.000  -0.184   0.000   0.000   0.000  -0.000   0.138  -0.000   0.000
  0.000   0.000  -0.000  -0.000   0.000   0.000  -0.000  -0.000   0.000   0.000   0.000   0.000   0.000   0.002   0.000   0.000


------------------------ aborting loop because EDIFF is reached ----------------------------------------


    CHARGE:  cpu time      0.0140: real time      0.0140
    FORLOC:  cpu time      0.0003: real time      0.0003
    FORNL :  cpu time      0.0063: real time      0.0063
    STRESS:  cpu time      0.0554: real time      0.0555
    FORCOR:  cpu time      0.0031: real time      0.0031
    FORHAR:  cpu time      0.0006: real time      0.0006
    MIXING:  cpu time      0.0002: real time      0.0002
    OFIELD:  cpu time      0.0000: real time      0.0000

  FORCE on cell =-STRESS in cart. coord.  units (eV):
  Direction    XX          YY          ZZ          XY          YZ          ZX
  --------------------------------------------------------------------------------------
  Alpha Z   303.71315   303.71315   303.71315
  Ewald   -1374.27429 -1374.27429 -1492.14368     0.00000     0.00000    -0.00000
  Hartree   278.66606   278.66606   223.04939    -0.00000    -0.00000    -0.00000
  E(xc)    -170.73304  -170.73305  -170.96575    -0.00000    -0.00000    -0.00000
  Local     180.21331   180.21329   347.83683    -0.00002    -0.00000    -0.00000
  n-local   -59.38540   -59.32421   -63.33860   -11.17365     2.65742     2.56784
  augment   145.87391   145.87393   148.48885     0.00001    -0.00000    -0.00000
  Kinetic   698.26068   692.76002   702.33008   -16.70589     2.59371     1.84203
  Fock        0.00000     0.00000     0.00000     0.00000     0.00000     0.00000
  -------------------------------------------------------------------------------------
  Total      -0.38536    -0.38536    -1.02973    -0.00000     0.00000     0.00000
  in kB     -19.53839   -19.53839   -52.20953    -0.00000     0.00000     0.00000
  external pressure =      -30.43 kB  Pullay stress =        0.00 kB


 VOLUME and BASIS-vectors are now :
 -----------------------------------------------------------------------------
  energy-cutoff  :      450.00
  volume of cell :       31.60
      direct lattice vectors                 reciprocal lattice vectors
     2.760000000  0.000000000  0.000000000     0.362318841  0.209184880  0.000000000
    -1.380000000  2.390230114  0.000000000     0.000000000  0.418369760  0.000000000
     0.000000000  0.000000000  4.790000000     0.000000000  0.000000000  0.208768267

  length of vectors
     2.760000000  2.760000000  4.790000000     0.418369760  0.418369760  0.208768267


 FORCES acting on ions
    electron-ion (+dipol)            ewald-force                    non-local-force                 convergence-correction
 -----------------------------------------------------------------------------------------------
   0.375E-06 -.217E-06 -.817E-14   0.179E-11 -.111E-11 -.683E-13   0.000E+00 0.278E-16 0.000E+00   0.862E-08 -.498E-08 -.222E-13
   -.288E-06 0.167E-06 -.294E-11   -.176E-11 0.110E-11 0.683E-13   0.694E-17 -.278E-16 0.000E+00   -.860E-08 0.496E-08 -.223E-13
 -----------------------------------------------------------------------------------------------
   0.866E-07 -.500E-07 -.295E-11   0.219E-13 -.314E-14 0.000E+00   0.694E-17 0.000E+00 0.000E+00   0.267E-10 -.154E-10 -.445E-13
 
 
 POSITION                                       TOTAL-FORCE (eV/Angst)
 -----------------------------------------------------------------------------------
      0.00000      0.00000      0.00000        -0.000000      0.000000      0.000000
      0.00000      1.59349      2.39500         0.000000     -0.000000      0.000000
 -----------------------------------------------------------------------------------
    total drift:                                0.000000     -0.000000     -0.000000


--------------------------------------------------------------------------------------------------------



  FREE ENERGIE OF THE ION-ELECTRON SYSTEM (eV)
  ---------------------------------------------------
  free  energy   TOTEN  =       -12.11782860 eV

  energy  without entropy=      -12.10916620  energy(sigma->0) =      -12.11349740
 


--------------------------------------------------------------------------------------------------------


    POTLOK:  cpu time      0.0057: real time      0.0058


--------------------------------------------------------------------------------------------------------


     LOOP+:  cpu time      1.5788: real time      1.5929
    4ORBIT:  cpu time      0.0000: real time      0.0000

 total amount of memory used by VASP MPI-rank0    33607. kBytes
=======================================================================

   base      :      30000. kBytes
   nonl-proj :       2200. kBytes
   fftplans  :        254. kBytes
   grid      :        864. kBytes
   one-center:         31. kBytes
   wavefun   :        258. kBytes
 
  
  
 General timing and accounting informations for this job:
 ========================================================
  
                  Total CPU time used (sec):        2.290
                            User time (sec):        1.798
                          System time (sec):        0.492
                         Elapsed time (sec):        3.667
  
                   Maximum memory used (kb):      229272.
                   Average memory used (kb):          N/A
  
                          Minor page faults:        20918
                          Major page faults:           71
                 Voluntary context switches:         2144
