<?xml version="1.0" encoding="ISO-8859-1"?>
<modeling>
 <generator>
  <i name="program" type="string">vasp </i>
  <i name="version" type="string">6.3.2  </i>
  <i name="subversion" type="string">27Jun22 (build Aug 12 2022 00:53:59) complex                          parallel </i>
  <i name="platform" type="string">tv2STD </i>
  <i name="date" type="string">2024 11 30 </i>
  <i name="time" type="string">16:02:50 </i>
 </generator>
 <incar>
  <i type="string" name="SYSTEM">Pt-hcc</i>
  <i type="int" name="ISTART">     0</i>
  <i type="string" name="PREC">Accurate      normal | accurate</i>
  <i type="string" name="ALGO">Normal     Normal, Fast, Very_Fast</i>
  <i type="logical" name="ADDGRID"> F  </i>
  <i type="int" name="ICHARG">     2</i>
  <i type="int" name="INIWAV">     1</i>
  <i type="int" name="NELM">   100</i>
  <i type="int" name="IBRION">    -1</i>
  <i name="EDIFF">      0.00000100</i>
  <i name="EDIFFG">     -0.02000000</i>
  <i type="int" name="NSW">     0</i>
  <i type="int" name="ISIF">     2</i>
  <i type="int" name="ISYM">     1</i>
  <i name="ENCUT">    450.00000000</i>
  <i type="logical" name="LREAL"> F  </i>
  <i type="int" name="ISMEAR">     0</i>
  <i name="SIGMA">      0.05000000</i>
  <i type="int" name="NWRITE">     2</i>
  <i type="logical" name="LWAVE"> F  </i>
  <i type="logical" name="LCHARG"> F  </i>
 </incar>
 <primitive_cell>
  <structure name="primitive_cell" >
   <crystal>
    <varray name="basis" >
     <v>       2.76000000       0.00000000       0.00000000 </v>
     <v>      -1.38000000       2.39023011       0.00000000 </v>
     <v>       0.00000000       0.00000000       4.79000000 </v>
    </varray>
    <i name="volume">     31.59979821 </i>
    <varray name="rec_basis" >
     <v>       0.36231884       0.20918488       0.00000000 </v>
     <v>       0.00000000       0.41836976       0.00000000 </v>
     <v>       0.00000000       0.00000000       0.20876827 </v>
    </varray>
   </crystal>
   <varray name="positions" >
    <v>       0.00000000       0.00000000       0.00000000 </v>
    <v>       0.33333333       0.66666667       0.50000000 </v>
   </varray>
  </structure>
  <varray name="primitive_index" >
   <v type="int" >        1 </v>
   <v type="int" >        2 </v>
  </varray>
 </primitive_cell>
 <kpoints>
  <generation param="Gamma">
   <v type="int" name="divisions">       6        6        4 </v>
   <v name="usershift">      0.00000000       0.00000000       0.00000000 </v>
   <v name="genvec1">      0.16666667       0.00000000       0.00000000 </v>
   <v name="genvec2">      0.00000000       0.16666667       0.00000000 </v>
   <v name="genvec3">      0.00000000       0.00000000       0.25000000 </v>
   <v name="shift">      0.00000000       0.00000000       0.00000000 </v>
  </generation>
  <varray name="kpointlist" >
   <v>       0.00000000       0.00000000       0.00000000 </v>
   <v>       0.16666667       0.00000000       0.00000000 </v>
   <v>       0.33333333       0.00000000       0.00000000 </v>
   <v>       0.50000000      -0.00000000       0.00000000 </v>
   <v>       0.16666667       0.16666667       0.00000000 </v>
   <v>       0.33333333       0.16666667       0.00000000 </v>
   <v>       0.33333333       0.33333333       0.00000000 </v>
   <v>       0.00000000       0.00000000       0.25000000 </v>
   <v>       0.16666667       0.00000000       0.25000000 </v>
   <v>       0.33333333       0.00000000       0.25000000 </v>
   <v>       0.50000000      -0.00000000       0.25000000 </v>
   <v>       0.16666667       0.16666667       0.25000000 </v>
   <v>       0.33333333       0.16666667       0.25000000 </v>
   <v>       0.33333333       0.33333333       0.25000000 </v>
   <v>       0.00000000       0.00000000       0.50000000 </v>
   <v>       0.16666667       0.00000000       0.50000000 </v>
   <v>       0.33333333       0.00000000       0.50000000 </v>
   <v>       0.50000000      -0.00000000       0.50000000 </v>
   <v>       0.16666667       0.16666667       0.50000000 </v>
   <v>       0.33333333       0.16666667       0.50000000 </v>
   <v>       0.33333333       0.33333333       0.50000000 </v>
  </varray>
  <varray name="weights" >
   <v>       0.00694444 </v>
   <v>       0.04166667 </v>
   <v>       0.04166667 </v>
   <v>       0.02083333 </v>
   <v>       0.04166667 </v>
   <v>       0.08333333 </v>
   <v>       0.01388889 </v>
   <v>       0.01388889 </v>
   <v>       0.08333333 </v>
   <v>       0.08333333 </v>
   <v>       0.04166667 </v>
   <v>       0.08333333 </v>
   <v>       0.16666667 </v>
   <v>       0.02777778 </v>
   <v>       0.00694444 </v>
   <v>       0.04166667 </v>
   <v>       0.04166667 </v>
   <v>       0.02083333 </v>
   <v>       0.04166667 </v>
   <v>       0.08333333 </v>
   <v>       0.01388889 </v>
  </varray>
 </kpoints>
 <parameters>
  <separator name="general" >
   <i type="string" name="SYSTEM">Pt-hcc</i>
   <i type="logical" name="LCOMPAT"> F  </i>
  </separator>
  <separator name="electronic" >
   <i type="string" name="PREC">accura</i>
   <i name="ENMAX">    450.00000000</i>
   <i name="ENAUG">    527.01400000</i>
   <i name="EDIFF">      0.00000100</i>
   <i type="int" name="IALGO">    38</i>
   <i type="int" name="IWAVPR">    10</i>
   <i type="int" name="NBANDS">    24</i>
   <i type="int" name="NBANDSLOW">    -1</i>
   <i type="int" name="NBANDSHIGH">    -1</i>
   <i name="NELECT">     32.00000000</i>
   <i type="int" name="TURBO">     0</i>
   <i type="int" name="IRESTART">     0</i>
   <i type="int" name="NREBOOT">     0</i>
   <i type="int" name="NMIN">     0</i>
   <i name="EREF">      0.00000000</i>
   <separator name="electronic smearing" >
    <i type="int" name="ISMEAR">     0</i>
    <i name="SIGMA">      0.05000000</i>
    <i name="KSPACING">      0.50000000</i>
    <i type="logical" name="KGAMMA"> T  </i>
    <i type="logical" name="KBLOWUP"> T  </i>
   </separator>
   <separator name="electronic projectors" >
    <i type="logical" name="LREAL"> F  </i>
    <v name="ROPT">      0.00000000</v>
    <i type="int" name="LMAXPAW">  -100</i>
    <i type="int" name="LMAXMIX">     2</i>
    <i type="logical" name="NLSPLINE"> F  </i>
   </separator>
   <separator name="electronic startup" >
    <i type="int" name="ISTART">     0</i>
    <i type="int" name="ICHARG">     2</i>
    <i type="int" name="INIWAV">     1</i>
   </separator>
   <separator name="electronic spin" >
    <i type="int" name="ISPIN">     1</i>
    <i type="logical" name="LNONCOLLINEAR"> F  </i>
    <v name="MAGMOM">      1.00000000      1.00000000</v>
    <i name="NUPDOWN">     -1.00000000</i>
    <i type="logical" name="LSORBIT"> F  </i>
    <v name="SAXIS">      0.00000000      0.00000000      1.00000000</v>
    <i type="logical" name="LSPIRAL"> F  </i>
    <v name="QSPIRAL">      0.00000000      0.00000000      0.00000000</v>
    <i type="logical" name="LZEROZ"> F  </i>
   </separator>
   <separator name="electronic exchange-correlation" >
    <i type="logical" name="LASPH"> F  </i>
    <i type="logical" name="LMETAGGA"> F  </i>
   </separator>
   <separator name="electronic convergence" >
    <i type="int" name="NELM">   100</i>
    <i type="int" name="NELMDL">    -5</i>
    <i type="int" name="NELMIN">     2</i>
    <i name="ENINI">    450.00000000</i>
    <separator name="electronic convergence detail" >
     <i type="logical" name="LDIAG"> T  </i>
     <i type="logical" name="LSUBROT"> F  </i>
     <i name="WEIMIN">      0.00000000</i>
     <i name="EBREAK">      0.00000001</i>
     <i name="DEPER">      0.30000000</i>
     <i type="int" name="NRMM">     4</i>
     <i name="TIME">      0.40000000</i>
    </separator>
   </separator>
   <separator name="electronic mixer" >
    <i name="AMIX">      0.40000000</i>
    <i name="BMIX">      1.00000000</i>
    <i name="AMIN">      0.10000000</i>
    <i name="AMIX_MAG">      1.60000000</i>
    <i name="BMIX_MAG">      1.00000000</i>
    <separator name="electronic mixer details" >
     <i type="int" name="IMIX">     4</i>
     <i type="logical" name="MIXFIRST"> F  </i>
     <i type="int" name="MAXMIX">   -45</i>
     <i name="WC">    100.00000000</i>
     <i type="int" name="INIMIX">     1</i>
     <i type="int" name="MIXPRE">     1</i>
     <i type="int" name="MREMOVE">     5</i>
    </separator>
   </separator>
   <separator name="electronic dipolcorrection" >
    <i type="logical" name="LDIPOL"> F  </i>
    <i type="logical" name="LMONO"> F  </i>
    <i type="int" name="IDIPOL">     0</i>
    <i name="EPSILON">      1.00000000</i>
    <v name="DIPOL">   -100.00000000   -100.00000000   -100.00000000</v>
    <i name="EFIELD">      0.00000000</i>
   </separator>
  </separator>
  <separator name="grids" >
   <i type="int" name="NGX">    20</i>
   <i type="int" name="NGY">    20</i>
   <i type="int" name="NGZ">    36</i>
   <i type="int" name="NGXF">    40</i>
   <i type="int" name="NGYF">    40</i>
   <i type="int" name="NGZF">    72</i>
   <i type="logical" name="ADDGRID"> F  </i>
  </separator>
  <separator name="ionic" >
   <i type="int" name="NSW">     0</i>
   <i type="int" name="IBRION">    -1</i>
   <i type="int" name="MDALGO">     0</i>
   <i type="int" name="ISIF">     2</i>
   <i name="PSTRESS">      0.00000000</i>
   <i name="EDIFFG">     -0.02000000</i>
   <i type="int" name="NFREE">     0</i>
   <i name="POTIM">      0.50000000</i>
   <i name="SMASS">     -3.00000000</i>
   <i name="SCALEE">      1.00000000</i>
  </separator>
  <separator name="ionic md" >
   <i name="TEBEG">      0.00010000</i>
   <i name="TEEND">      0.00010000</i>
   <i type="int" name="NBLOCK">     1</i>
   <i type="int" name="KBLOCK">     1</i>
   <i type="int" name="NPACO">   256</i>
   <i name="APACO">     10.00000000</i>
  </separator>
  <separator name="symmetry" >
   <i type="int" name="ISYM">     1</i>
   <i name="SYMPREC">      0.00001000</i>
  </separator>
  <separator name="dos" >
   <i type="int" name="LORBIT">     0</i>
   <v name="RWIGS">     -1.00000000</v>
   <i type="int" name="NEDOS">   301</i>
   <i name="EMIN">     10.00000000</i>
   <i name="EMAX">    -10.00000000</i>
   <i name="EFERMI">      0.00000000</i>
  </separator>
  <separator name="writing" >
   <i type="int" name="NWRITE">     2</i>
   <i type="logical" name="LWAVE"> F  </i>
   <i type="logical" name="LDOWNSAMPLE"> F  </i>
   <i type="logical" name="LCHARG"> F  </i>
   <i type="logical" name="LPARD"> F  </i>
   <i type="logical" name="LVTOT"> F  </i>
   <i type="logical" name="LVHAR"> F  </i>
   <i type="logical" name="LELF"> F  </i>
   <i type="logical" name="LOPTICS"> F  </i>
   <v name="STM">      0.00000000      0.00000000      0.00000000      0.00000000      0.00000000      0.00000000      0.00000000</v>
  </separator>
  <separator name="performance" >
   <i type="int" name="NPAR">    24</i>
   <i type="int" name="NSIM">     4</i>
   <i type="int" name="NBLK">    -1</i>
   <i type="logical" name="LPLANE"> T  </i>
   <i type="logical" name="LSCALAPACK"> T  </i>
   <i type="logical" name="LSCAAWARE"> F  </i>
   <i type="logical" name="LSCALU"> F  </i>
   <i type="logical" name="LASYNC"> F  </i>
   <i type="logical" name="LORBITALREAL"> F  </i>
  </separator>
  <separator name="miscellaneous" >
   <i type="int" name="IDIOT">     3</i>
   <i type="int" name="PHON_NSTRUCT">    -1</i>
   <i type="logical" name="LMUSIC"> F  </i>
   <v name="POMASS">    195.08000000</v>
   <v name="DARWINR">      0.00000000</v>
   <v name="DARWINV">      1.00000000</v>
   <i type="logical" name="LCORR"> T  </i>
  </separator>
  <i type="logical" name="GGA_COMPAT"> T  </i>
  <i type="logical" name="LBERRY"> F  </i>
  <i type="int" name="ICORELEVEL">     0</i>
  <i type="logical" name="LDAU"> F  </i>
  <i type="int" name="I_CONSTRAINED_M">     0</i>
  <separator name="electronic exchange-correlation" >
   <i type="string" name="GGA">--</i>
   <i type="int" name="VOSKOWN">     0</i>
   <i type="logical" name="LHFCALC"> F  </i>
   <i type="string" name="PRECFOCK"></i>
   <i type="logical" name="LSYMGRAD"> F  </i>
   <i type="logical" name="LHFONE"> F  </i>
   <i type="logical" name="LRHFCALC"> F  </i>
   <i type="logical" name="LTHOMAS"> F  </i>
   <i type="logical" name="LMODELHF"> F  </i>
   <i type="logical" name="LFOCKACE"> F  </i>
   <i name="ENCUT4O">     -1.00000000</i>
   <i type="int" name="EXXOEP">     0</i>
   <i type="int" name="FOURORBIT">     0</i>
   <i name="AEXX">      0.00000000</i>
   <i name="HFALPHA">      0.00000000</i>
   <i name="MCALPHA">      0.00000000</i>
   <i name="ALDAX">      1.00000000</i>
   <i name="AGGAX">      1.00000000</i>
   <i name="ALDAC">      1.00000000</i>
   <i name="AGGAC">      1.00000000</i>
   <i type="int" name="NKREDX">     1</i>
   <i type="int" name="NKREDY">     1</i>
   <i type="int" name="NKREDZ">     1</i>
   <i type="logical" name="SHIFTRED"> F  </i>
   <i type="logical" name="ODDONLY"> F  </i>
   <i type="logical" name="EVENONLY"> F  </i>
   <i type="int" name="LMAXFOCK">     0</i>
   <i type="int" name="NMAXFOCKAE">     0</i>
   <i type="logical" name="LFOCKAEDFT"> F  </i>
   <i name="HFSCREEN">      0.00000000</i>
   <i name="HFSCREENC">      0.00000000</i>
   <i type="int" name="NBANDSGWLOW">     0</i>
  </separator>
  <separator name="vdW DFT" >
   <i type="logical" name="LUSE_VDW"> F  </i>
   <i name="Zab_VDW">     -0.84910000</i>
   <i name="PARAM1">      0.12340000</i>
   <i name="PARAM2">      1.00000000</i>
   <i name="PARAM3">      0.00000000</i>
  </separator>
  <separator name="model GW" >
   <i type="int" name="MODEL_GW">     0</i>
   <i name="MODEL_EPS0">      9.47993946</i>
   <i name="MODEL_ALPHA">      1.00000000</i>
  </separator>
  <separator name="linear response parameters" >
   <i type="logical" name="LEPSILON"> F  </i>
   <i type="logical" name="LRPA"> F  </i>
   <i type="logical" name="LNABLA"> F  </i>
   <i type="logical" name="LVEL"> F  </i>
   <i name="CSHIFT">      0.10000000</i>
   <i name="OMEGAMAX">     -1.00000000</i>
   <i name="DEG_THRESHOLD">      0.00200000</i>
   <i name="RTIME">     -0.10000000</i>
   <i name="WPLASMAI">      0.00000000</i>
   <v name="DFIELD">      0.00000000      0.00000000      0.00000000</v>
   <v name="WPLASMA">      0.00000000      0.00000000      0.00000000      0.00000000      0.00000000      0.00000000      0.00000000      0.00000000      0.00000000</v>
  </separator>
  <separator name="orbital magnetization" >
   <i type="logical" name="NUCIND"> F  </i>
   <v name="MAGPOS">      0.00000000      0.00000000      0.00000000</v>
   <i type="logical" name="LNICSALL"> T  </i>
   <i type="logical" name="ORBITALMAG"> F  </i>
   <i type="logical" name="LMAGBLOCH"> F  </i>
   <i type="logical" name="LCHIMAG"> F  </i>
   <i type="logical" name="LGAUGE"> T  </i>
   <i type="int" name="MAGATOM">     0</i>
   <v name="MAGDIPOL">      0.00000000      0.00000000      0.00000000</v>
   <v name="AVECCONST">      0.00000000      0.00000000      0.00000000</v>
  </separator>
  <separator name="response functions" >
   <i type="logical" name="LFINITE_TEMPERATURE"> F  </i>
   <i type="logical" name="LADDER"> F  </i>
   <i type="logical" name="LRPAFORCE"> F  </i>
   <i type="logical" name="LFXC"> F  </i>
   <i type="logical" name="LHARTREE"> T  </i>
   <i type="int" name="IBSE">     0</i>
   <v type="int" name="KPOINT">    -1     0     0     0</v>
   <i type="logical" name="LTCTC"> F  </i>
   <i type="logical" name="LTCTE"> F  </i>
   <i type="logical" name="LTETE"> F  </i>
   <i type="logical" name="LTRIPLET"> F  </i>
   <i type="logical" name="LFXCEPS"> F  </i>
   <i type="logical" name="LFXHEG"> F  </i>
   <i type="int" name="NATURALO">     2</i>
   <i type="logical" name="LHOLEGF"> F  </i>
   <i type="logical" name="L2ORDER"> F  </i>
   <i type="logical" name="LDMP1"> F  </i>
   <i type="logical" name="LMP2LT"> F  </i>
   <i type="logical" name="LSMP2LT"> F  </i>
   <i type="logical" name="LGWLF"> F  </i>
   <i name="ENCUTGW">     -2.00000000</i>
   <i name="ENCUTGWSOFT">     -2.00000000</i>
   <i name="ENCUTLF">     -1.00000000</i>
   <i type="logical" name="LESF_SPLINES"> F  </i>
   <i type="int" name="LMAXMP2">    -1</i>
   <i name="SCISSOR">      0.00000000</i>
   <i type="int" name="NOMEGA">     0</i>
   <i type="int" name="NOMEGAR">     0</i>
   <i type="int" name="NBANDSGW">    -1</i>
   <i type="int" name="NBANDSO">    -1</i>
   <i type="int" name="NBANDSV">    -1</i>
   <i type="int" name="NELMGW">     1</i>
   <i type="int" name="NELMHF">     1</i>
   <i type="int" name="DIM">     3</i>
   <i type="int" name="IESPILON">     4</i>
   <i type="int" name="ANTIRES">     0</i>
   <i name="OMEGAMAX">    -30.00000000</i>
   <i name="OMEGAMIN">    -30.00000000</i>
   <i name="OMEGATL">   -200.00000000</i>
   <i type="int" name="OMEGAGRID">     0</i>
   <i name="CSHIFT">     -0.10000000</i>
   <i type="logical" name="LSELFENERGY"> F  </i>
   <i type="logical" name="LSPECTRAL"> F  </i>
   <i type="logical" name="LSPECTRALGW"> F  </i>
   <i type="logical" name="LSINGLES"> F  </i>
   <i type="logical" name="LFERMIGW"> F  </i>
   <i type="logical" name="ODDONLYGW"> F  </i>
   <i type="logical" name="EVENONLYGW"> F  </i>
   <i type="int" name="NKREDLFX">     1</i>
   <i type="int" name="NKREDLFY">     1</i>
   <i type="int" name="NKREDLFZ">     1</i>
   <i type="int" name="MAXMEM">  2800</i>
   <i type="int" name="TELESCOPE">     0</i>
   <i type="int" name="NTAUPAR">    -1</i>
   <i type="int" name="NOMEGAPAR">    -1</i>
   <i name="DAMP_NEWTON">      0.80000001</i>
   <i name="LAMBDA">      1.00000000</i>
  </separator>
  <separator name="External order field" >
   <i name="OFIELD_KAPPA">      0.00000000</i>
   <v name="OFIELD_K">      0.00000000      0.00000000      0.00000000</v>
   <i name="OFIELD_Q6_NEAR">      0.00000000</i>
   <i name="OFIELD_Q6_FAR">      0.00000000</i>
   <i name="OFIELD_A">      0.00000000</i>
  </separator>
  <separator name="optional k-points parameters" >
   <i type="int" name="KPOINTS_OPT_MODE">     1</i>
   <i type="logical" name="LKPOINTS_OPT"> F  </i>
  </separator>
 </parameters>
 <atominfo>
  <atoms>       2 </atoms>
  <types>       1 </types>
  <array name="atoms" >
   <dimension dim="1">ion</dimension>
   <field type="string">element</field>
   <field type="int">atomtype</field>
   <set>
    <rc><c>Pt</c><c>   1</c></rc>
    <rc><c>Pt</c><c>   1</c></rc>
   </set>
  </array>
  <array name="atomtypes" >
   <dimension dim="1">type</dimension>
   <field type="int">atomspertype</field>
   <field type="string">element</field>
   <field>mass</field>
   <field>valence</field>
   <field type="string">pseudopotential</field>
   <set>
    <rc><c>   2</c><c>Pt</c><c>    195.08000000</c><c>     16.00000000</c><c>  PAW_PBE Pt_pv 12Dec2005               </c></rc>
   </set>
  </array>
 </atominfo>
 <structure name="initialpos" >
  <crystal>
   <varray name="basis" >
    <v>       2.76000000       0.00000000       0.00000000 </v>
    <v>      -1.38000000       2.39023011       0.00000000 </v>
    <v>       0.00000000       0.00000000       4.79000000 </v>
   </varray>
   <i name="volume">     31.59979821 </i>
   <varray name="rec_basis" >
    <v>       0.36231884       0.20918488       0.00000000 </v>
    <v>       0.00000000       0.41836976       0.00000000 </v>
    <v>       0.00000000       0.00000000       0.20876827 </v>
   </varray>
  </crystal>
  <varray name="positions" >
   <v>       0.00000000       0.00000000       0.00000000 </v>
   <v>       0.33333333       0.66666667       0.50000000 </v>
  </varray>
 </structure>
 <calculation>
  <scstep>
   <time name="dav">    0.10    0.10</time>
   <time name="total">    0.10    0.11</time>
   <energy>
    <i name="alphaZ">    303.71314961 </i>
    <i name="ewald">  -4240.69024974 </i>
    <i name="hartreedc">   -819.48907223 </i>
    <i name="XCdc">    127.32804754 </i>
    <i name="pawpsdc">   4131.50523274 </i>
    <i name="pawaedc">  -4061.67189606 </i>
    <i name="eentropy">     -0.00747441 </i>
    <i name="bandstr">   -153.10513444 </i>
    <i name="atom">   4856.42966544 </i>
    <i name="e_fr_energy">    144.01226846 </i>
    <i name="e_wo_entrp">    144.01974287 </i>
    <i name="e_0_energy">    144.01600567 </i>
   </energy>
  </scstep>
  <scstep>
   <time name="dav">    0.10    0.10</time>
   <time name="total">    0.10    0.10</time>
   <energy>
    <i name="e_fr_energy">    -11.47931582 </i>
    <i name="e_wo_entrp">    -11.47426750 </i>
    <i name="e_0_energy">    -11.47679166 </i>
   </energy>
  </scstep>
  <scstep>
   <time name="dav">    0.15    0.15</time>
   <time name="total">    0.15    0.15</time>
   <energy>
    <i name="e_fr_energy">    -12.84203063 </i>
    <i name="e_wo_entrp">    -12.83859633 </i>
    <i name="e_0_energy">    -12.84031348 </i>
   </energy>
  </scstep>
  <scstep>
   <time name="dav">    0.18    0.19</time>
   <time name="total">    0.18    0.19</time>
   <energy>
    <i name="e_fr_energy">    -12.84713427 </i>
    <i name="e_wo_entrp">    -12.84369567 </i>
    <i name="e_0_energy">    -12.84541497 </i>
   </energy>
  </scstep>
  <scstep>
   <time name="dav">    0.16    0.16</time>
   <time name="total">    0.17    0.17</time>
   <energy>
    <i name="e_fr_energy">    -12.84713493 </i>
    <i name="e_wo_entrp">    -12.84369632 </i>
    <i name="e_0_energy">    -12.84541562 </i>
   </energy>
  </scstep>
  <scstep>
   <time name="dav">    0.10    0.10</time>
   <time name="total">    0.12    0.12</time>
   <energy>
    <i name="e_fr_energy">    -12.15237246 </i>
    <i name="e_wo_entrp">    -12.14550139 </i>
    <i name="e_0_energy">    -12.14893692 </i>
   </energy>
  </scstep>
  <scstep>
   <time name="dav">    0.13    0.13</time>
   <time name="total">    0.14    0.15</time>
   <energy>
    <i name="e_fr_energy">    -12.12041459 </i>
    <i name="e_wo_entrp">    -12.11188716 </i>
    <i name="e_0_energy">    -12.11615087 </i>
   </energy>
  </scstep>
  <scstep>
   <time name="dav">    0.10    0.10</time>
   <time name="total">    0.12    0.12</time>
   <energy>
    <i name="e_fr_energy">    -12.11798890 </i>
    <i name="e_wo_entrp">    -12.10923867 </i>
    <i name="e_0_energy">    -12.11361378 </i>
   </energy>
  </scstep>
  <scstep>
   <time name="dav">    0.13    0.13</time>
   <time name="total">    0.15    0.15</time>
   <energy>
    <i name="e_fr_energy">    -12.11781669 </i>
    <i name="e_wo_entrp">    -12.10913509 </i>
    <i name="e_0_energy">    -12.11347589 </i>
   </energy>
  </scstep>
  <scstep>
   <time name="dav">    0.12    0.12</time>
   <time name="total">    0.14    0.14</time>
   <energy>
    <i name="e_fr_energy">    -12.11782887 </i>
    <i name="e_wo_entrp">    -12.10916924 </i>
    <i name="e_0_energy">    -12.11349906 </i>
   </energy>
  </scstep>
  <scstep>
   <time name="dav">    0.08    0.08</time>
   <time name="total">    0.09    0.09</time>
   <energy>
    <i name="alphaZ">    303.71314961 </i>
    <i name="ewald">  -4240.69024974 </i>
    <i name="hartreedc">   -780.38629852 </i>
    <i name="XCdc">    125.60685376 </i>
    <i name="pawpsdc">   4620.22183471 </i>
    <i name="pawaedc">  -4555.48613185 </i>
    <i name="eentropy">     -0.00866241 </i>
    <i name="bandstr">   -341.51798961 </i>
    <i name="atom">   4856.42966544 </i>
    <i name="e_fr_energy">    -12.11782860 </i>
    <i name="e_wo_entrp">    -12.10916620 </i>
    <i name="e_0_energy">    -12.11349740 </i>
   </energy>
  </scstep>
  <structure>
   <crystal>
    <varray name="basis" >
     <v>       2.76000000       0.00000000       0.00000000 </v>
     <v>      -1.38000000       2.39023011       0.00000000 </v>
     <v>       0.00000000       0.00000000       4.79000000 </v>
    </varray>
    <i name="volume">     31.59979821 </i>
    <varray name="rec_basis" >
     <v>       0.36231884       0.20918488       0.00000000 </v>
     <v>       0.00000000       0.41836976       0.00000000 </v>
     <v>       0.00000000       0.00000000       0.20876827 </v>
    </varray>
   </crystal>
   <varray name="positions" >
    <v>       0.00000000       0.00000000       0.00000000 </v>
    <v>       0.33333333       0.66666667       0.50000000 </v>
   </varray>
  </structure>
  <varray name="forces" >
   <v>      -0.00000000       0.00000000       0.00000000 </v>
   <v>       0.00000000      -0.00000000       0.00000000 </v>
  </varray>
  <varray name="stress" >
   <v>     -19.53839139       0.00000000       0.00000000 </v>
   <v>      -0.00000000     -19.53839139       0.00000000 </v>
   <v>       0.00000000       0.00000000     -52.20952801 </v>
  </varray>
  <energy>
   <i name="e_fr_energy">    -12.11782860 </i>
   <i name="e_wo_entrp">    -12.10916620 </i>
   <i name="e_0_energy">    -12.11349740 </i>
  </energy>
  <time name="totalsc">    1.58    1.59</time>
  <eigenvalues>
   <array>
    <dimension dim="1">band</dimension>
    <dimension dim="2">kpoint</dimension>
    <dimension dim="3">spin</dimension>
    <field>eigene</field>
    <field>occ</field>
    <set>
     <set comment="spin 1">
      <set comment="kpoint 1">
       <r>  -41.5447    1.0000 </r>
       <r>  -41.2919    1.0000 </r>
       <r>  -41.2919    1.0000 </r>
       <r>  -41.2517    1.0000 </r>
       <r>  -41.2517    1.0000 </r>
       <r>  -41.2164    1.0000 </r>
       <r>    1.4232    1.0000 </r>
       <r>    4.0802    1.0000 </r>
       <r>    7.1649    1.0000 </r>
       <r>    7.7423    1.0000 </r>
       <r>    7.7423    1.0000 </r>
       <r>    8.1080    1.0000 </r>
       <r>    8.1080    1.0000 </r>
       <r>    9.3123    1.0000 </r>
       <r>    9.3123    1.0000 </r>
       <r>   10.3930    1.0000 </r>
       <r>   10.8907    1.0000 </r>
       <r>   10.8907    1.0000 </r>
       <r>   15.7649    0.0000 </r>
       <r>   26.2612    0.0000 </r>
       <r>   26.8057    0.0000 </r>
       <r>   28.4143    0.0000 </r>
       <r>   32.1373    0.0000 </r>
       <r>   32.1373    0.0000 </r>
      </set>
      <set comment="kpoint 2">
       <r>  -41.5126    1.0000 </r>
       <r>  -41.3856    1.0000 </r>
       <r>  -41.3475    1.0000 </r>
       <r>  -41.3184    1.0000 </r>
       <r>  -41.2709    1.0000 </r>
       <r>  -41.2239    1.0000 </r>
       <r>    2.3850    1.0000 </r>
       <r>    4.8902    1.0000 </r>
       <r>    6.9710    1.0000 </r>
       <r>    7.5865    1.0000 </r>
       <r>    7.8019    1.0000 </r>
       <r>    8.0979    1.0000 </r>
       <r>    8.4898    1.0000 </r>
       <r>    8.8161    1.0000 </r>
       <r>    8.9011    1.0000 </r>
       <r>    8.9509    1.0000 </r>
       <r>   11.0224    0.9855 </r>
       <r>   14.0801    0.0000 </r>
       <r>   15.6849    0.0000 </r>
       <r>   26.1654    0.0000 </r>
       <r>   27.9911    0.0000 </r>
       <r>   28.7314    0.0000 </r>
       <r>   29.0398    0.0000 </r>
       <r>   29.5395    0.0000 </r>
      </set>
      <set comment="kpoint 3">
       <r>  -41.5745    1.0000 </r>
       <r>  -41.5339    1.0000 </r>
       <r>  -41.4383    1.0000 </r>
       <r>  -41.3711    1.0000 </r>
       <r>  -41.3118    1.0000 </r>
       <r>  -41.2504    1.0000 </r>
       <r>    4.2860    1.0000 </r>
       <r>    5.1574    1.0000 </r>
       <r>    6.0579    1.0000 </r>
       <r>    7.2855    1.0000 </r>
       <r>    7.8223    1.0000 </r>
       <r>    8.1217    1.0000 </r>
       <r>    8.2674    1.0000 </r>
       <r>   10.0256    1.0000 </r>
       <r>   10.3123    1.0000 </r>
       <r>   10.5151    1.0000 </r>
       <r>   11.1122    0.3610 </r>
       <r>   15.9861    0.0000 </r>
       <r>   17.7278    0.0000 </r>
       <r>   20.1685    0.0000 </r>
       <r>   25.1295    0.0000 </r>
       <r>   25.8915    0.0000 </r>
       <r>   26.5005    0.0000 </r>
       <r>   28.6342    0.0000 </r>
      </set>
      <set comment="kpoint 4">
       <r>  -41.6682    1.0000 </r>
       <r>  -41.6254    1.0000 </r>
       <r>  -41.3973    1.0000 </r>
       <r>  -41.3862    1.0000 </r>
       <r>  -41.3322    1.0000 </r>
       <r>  -41.2790    1.0000 </r>
       <r>    4.7477    1.0000 </r>
       <r>    4.8156    1.0000 </r>
       <r>    5.4498    1.0000 </r>
       <r>    7.7597    1.0000 </r>
       <r>    8.0006    1.0000 </r>
       <r>    8.1807    1.0000 </r>
       <r>    8.5247    1.0000 </r>
       <r>   11.1156    0.3256 </r>
       <r>   11.4550    0.0000 </r>
       <r>   11.6556    0.0000 </r>
       <r>   13.3993    0.0000 </r>
       <r>   14.8872    0.0000 </r>
       <r>   18.4207    0.0000 </r>
       <r>   19.9345    0.0000 </r>
       <r>   20.6423    0.0000 </r>
       <r>   23.1628    0.0000 </r>
       <r>   24.3910    0.0000 </r>
       <r>   27.2128    0.0000 </r>
      </set>
      <set comment="kpoint 5">
       <r>  -41.4973    1.0000 </r>
       <r>  -41.4880    1.0000 </r>
       <r>  -41.4593    1.0000 </r>
       <r>  -41.3645    1.0000 </r>
       <r>  -41.3254    1.0000 </r>
       <r>  -41.2413    1.0000 </r>
       <r>    4.0061    1.0000 </r>
       <r>    5.9370    1.0000 </r>
       <r>    6.4031    1.0000 </r>
       <r>    6.5592    1.0000 </r>
       <r>    7.4284    1.0000 </r>
       <r>    7.8452    1.0000 </r>
       <r>    8.5157    1.0000 </r>
       <r>    8.8116    1.0000 </r>
       <r>   10.0235    1.0000 </r>
       <r>   10.5214    1.0000 </r>
       <r>   10.8934    1.0000 </r>
       <r>   15.8526    0.0000 </r>
       <r>   16.9307    0.0000 </r>
       <r>   23.0326    0.0000 </r>
       <r>   23.6651    0.0000 </r>
       <r>   27.2770    0.0000 </r>
       <r>   29.1209    0.0000 </r>
       <r>   29.8479    0.0000 </r>
      </set>
      <set comment="kpoint 6">
       <r>  -41.6186    1.0000 </r>
       <r>  -41.5826    1.0000 </r>
       <r>  -41.4387    1.0000 </r>
       <r>  -41.3864    1.0000 </r>
       <r>  -41.3837    1.0000 </r>
       <r>  -41.2782    1.0000 </r>
       <r>    5.4347    1.0000 </r>
       <r>    5.5531    1.0000 </r>
       <r>    5.7122    1.0000 </r>
       <r>    7.3728    1.0000 </r>
       <r>    7.5290    1.0000 </r>
       <r>    8.0189    1.0000 </r>
       <r>    8.1678    1.0000 </r>
       <r>   10.0236    1.0000 </r>
       <r>   10.7373    1.0000 </r>
       <r>   11.1476    0.0876 </r>
       <r>   13.1976    0.0000 </r>
       <r>   17.1380    0.0000 </r>
       <r>   18.0084    0.0000 </r>
       <r>   20.3303    0.0000 </r>
       <r>   20.3881    0.0000 </r>
       <r>   24.2521    0.0000 </r>
       <r>   25.5366    0.0000 </r>
       <r>   26.9769    0.0000 </r>
      </set>
      <set comment="kpoint 7">
       <r>  -41.5761    1.0000 </r>
       <r>  -41.5361    1.0000 </r>
       <r>  -41.5361    1.0000 </r>
       <r>  -41.4934    1.0000 </r>
       <r>  -41.3263    1.0000 </r>
       <r>  -41.3263    1.0000 </r>
       <r>    5.7440    1.0000 </r>
       <r>    6.4068    1.0000 </r>
       <r>    6.4068    1.0000 </r>
       <r>    6.9030    1.0000 </r>
       <r>    7.4809    1.0000 </r>
       <r>    7.4809    1.0000 </r>
       <r>    8.5954    1.0000 </r>
       <r>   10.3679    1.0000 </r>
       <r>   10.3679    1.0000 </r>
       <r>   10.3975    1.0000 </r>
       <r>   15.5368    0.0000 </r>
       <r>   15.5368    0.0000 </r>
       <r>   16.9903    0.0000 </r>
       <r>   22.9144    0.0000 </r>
       <r>   23.1874    0.0000 </r>
       <r>   23.1874    0.0000 </r>
       <r>   23.7978    0.0000 </r>
       <r>   23.7978    0.0000 </r>
      </set>
      <set comment="kpoint 8">
       <r>  -41.4968    1.0000 </r>
       <r>  -41.2853    1.0000 </r>
       <r>  -41.2853    1.0000 </r>
       <r>  -41.2647    1.0000 </r>
       <r>  -41.2572    1.0000 </r>
       <r>  -41.2572    1.0000 </r>
       <r>    1.9443    1.0000 </r>
       <r>    3.9676    1.0000 </r>
       <r>    7.0552    1.0000 </r>
       <r>    7.6897    1.0000 </r>
       <r>    7.6897    1.0000 </r>
       <r>    7.9688    1.0000 </r>
       <r>    7.9688    1.0000 </r>
       <r>    8.6194    1.0000 </r>
       <r>    9.6665    1.0000 </r>
       <r>    9.6665    1.0000 </r>
       <r>   10.7722    1.0000 </r>
       <r>   10.7722    1.0000 </r>
       <r>   18.5526    0.0000 </r>
       <r>   25.2539    0.0000 </r>
       <r>   27.5133    0.0000 </r>
       <r>   27.6255    0.0000 </r>
       <r>   31.0868    0.0000 </r>
       <r>   31.0868    0.0000 </r>
      </set>
      <set comment="kpoint 9">
       <r>  -41.4797    1.0000 </r>
       <r>  -41.3724    1.0000 </r>
       <r>  -41.3608    1.0000 </r>
       <r>  -41.3116    1.0000 </r>
       <r>  -41.2778    1.0000 </r>
       <r>  -41.2570    1.0000 </r>
       <r>    2.8686    1.0000 </r>
       <r>    4.8435    1.0000 </r>
       <r>    7.0214    1.0000 </r>
       <r>    7.0718    1.0000 </r>
       <r>    7.3156    1.0000 </r>
       <r>    8.0521    1.0000 </r>
       <r>    8.3355    1.0000 </r>
       <r>    8.6382    1.0000 </r>
       <r>    9.4266    1.0000 </r>
       <r>    9.4449    1.0000 </r>
       <r>   10.8136    1.0000 </r>
       <r>   12.0707    0.0000 </r>
       <r>   18.9866    0.0000 </r>
       <r>   26.1447    0.0000 </r>
       <r>   27.3150    0.0000 </r>
       <r>   28.1307    0.0000 </r>
       <r>   29.4869    0.0000 </r>
       <r>   29.5397    0.0000 </r>
      </set>
      <set comment="kpoint 10">
       <r>  -41.5826    1.0000 </r>
       <r>  -41.5501    1.0000 </r>
       <r>  -41.3959    1.0000 </r>
       <r>  -41.3624    1.0000 </r>
       <r>  -41.3200    1.0000 </r>
       <r>  -41.2686    1.0000 </r>
       <r>    4.3673    1.0000 </r>
       <r>    5.2162    1.0000 </r>
       <r>    6.1142    1.0000 </r>
       <r>    6.6126    1.0000 </r>
       <r>    7.9940    1.0000 </r>
       <r>    8.5544    1.0000 </r>
       <r>    8.8386    1.0000 </r>
       <r>   10.0605    1.0000 </r>
       <r>   10.1450    1.0000 </r>
       <r>   10.4229    1.0000 </r>
       <r>   10.9395    1.0000 </r>
       <r>   13.6242    0.0000 </r>
       <r>   19.4685    0.0000 </r>
       <r>   21.7028    0.0000 </r>
       <r>   24.3608    0.0000 </r>
       <r>   26.1101    0.0000 </r>
       <r>   27.1482    0.0000 </r>
       <r>   28.8133    0.0000 </r>
      </set>
      <set comment="kpoint 11">
       <r>  -41.6726    1.0000 </r>
       <r>  -41.6406    1.0000 </r>
       <r>  -41.3875    1.0000 </r>
       <r>  -41.3588    1.0000 </r>
       <r>  -41.3417    1.0000 </r>
       <r>  -41.2850    1.0000 </r>
       <r>    4.4789    1.0000 </r>
       <r>    4.8348    1.0000 </r>
       <r>    5.9703    1.0000 </r>
       <r>    6.3698    1.0000 </r>
       <r>    8.3536    1.0000 </r>
       <r>    8.5720    1.0000 </r>
       <r>   10.4503    1.0000 </r>
       <r>   10.4976    1.0000 </r>
       <r>   11.5034    0.0000 </r>
       <r>   11.6312    0.0000 </r>
       <r>   12.4857    0.0000 </r>
       <r>   14.4106    0.0000 </r>
       <r>   17.9640    0.0000 </r>
       <r>   18.1546    0.0000 </r>
       <r>   23.3769    0.0000 </r>
       <r>   24.2566    0.0000 </r>
       <r>   24.8656    0.0000 </r>
       <r>   28.2343    0.0000 </r>
      </set>
      <set comment="kpoint 12">
       <r>  -41.5177    1.0000 </r>
       <r>  -41.4961    1.0000 </r>
       <r>  -41.4057    1.0000 </r>
       <r>  -41.3637    1.0000 </r>
       <r>  -41.3309    1.0000 </r>
       <r>  -41.2617    1.0000 </r>
       <r>    4.3177    1.0000 </r>
       <r>    6.0701    1.0000 </r>
       <r>    6.1271    1.0000 </r>
       <r>    6.5304    1.0000 </r>
       <r>    7.3873    1.0000 </r>
       <r>    7.5379    1.0000 </r>
       <r>    8.5675    1.0000 </r>
       <r>    9.2551    1.0000 </r>
       <r>   10.0853    1.0000 </r>
       <r>   10.3465    1.0000 </r>
       <r>   10.9190    1.0000 </r>
       <r>   13.3932    0.0000 </r>
       <r>   19.8570    0.0000 </r>
       <r>   23.8751    0.0000 </r>
       <r>   24.1534    0.0000 </r>
       <r>   26.9413    0.0000 </r>
       <r>   27.4976    0.0000 </r>
       <r>   28.7177    0.0000 </r>
      </set>
      <set comment="kpoint 13">
       <r>  -41.6227    1.0000 </r>
       <r>  -41.5973    1.0000 </r>
       <r>  -41.4382    1.0000 </r>
       <r>  -41.3980    1.0000 </r>
       <r>  -41.3514    1.0000 </r>
       <r>  -41.2806    1.0000 </r>
       <r>    5.0906    1.0000 </r>
       <r>    5.6918    1.0000 </r>
       <r>    6.1244    1.0000 </r>
       <r>    6.6424    1.0000 </r>
       <r>    7.5097    1.0000 </r>
       <r>    8.4540    1.0000 </r>
       <r>    8.7332    1.0000 </r>
       <r>    9.9852    1.0000 </r>
       <r>   10.2271    1.0000 </r>
       <r>   11.3990    0.0000 </r>
       <r>   13.2990    0.0000 </r>
       <r>   15.9090    0.0000 </r>
       <r>   17.7245    0.0000 </r>
       <r>   20.5812    0.0000 </r>
       <r>   21.7040    0.0000 </r>
       <r>   24.2358    0.0000 </r>
       <r>   25.6759    0.0000 </r>
       <r>   26.9418    0.0000 </r>
      </set>
      <set comment="kpoint 14">
       <r>  -41.5639    1.0000 </r>
       <r>  -41.5521    1.0000 </r>
       <r>  -41.5521    1.0000 </r>
       <r>  -41.5055    1.0000 </r>
       <r>  -41.3095    1.0000 </r>
       <r>  -41.3095    1.0000 </r>
       <r>    6.0463    1.0000 </r>
       <r>    6.2091    1.0000 </r>
       <r>    6.2091    1.0000 </r>
       <r>    6.9036    1.0000 </r>
       <r>    7.4953    1.0000 </r>
       <r>    7.4953    1.0000 </r>
       <r>    8.5587    1.0000 </r>
       <r>    9.6815    1.0000 </r>
       <r>   10.6691    1.0000 </r>
       <r>   10.6691    1.0000 </r>
       <r>   16.0452    0.0000 </r>
       <r>   16.0452    0.0000 </r>
       <r>   17.9895    0.0000 </r>
       <r>   20.3197    0.0000 </r>
       <r>   20.3197    0.0000 </r>
       <r>   21.8207    0.0000 </r>
       <r>   26.7578    0.0000 </r>
       <r>   26.7578    0.0000 </r>
      </set>
      <set comment="kpoint 15">
       <r>  -41.3813    1.0000 </r>
       <r>  -41.3813    1.0000 </r>
       <r>  -41.2713    1.0000 </r>
       <r>  -41.2713    1.0000 </r>
       <r>  -41.2713    1.0000 </r>
       <r>  -41.2713    1.0000 </r>
       <r>    3.1733    1.0000 </r>
       <r>    3.1733    1.0000 </r>
       <r>    7.1489    1.0000 </r>
       <r>    7.1489    1.0000 </r>
       <r>    7.7453    1.0000 </r>
       <r>    7.7453    1.0000 </r>
       <r>    7.7453    1.0000 </r>
       <r>    7.7453    1.0000 </r>
       <r>   10.3235    1.0000 </r>
       <r>   10.3235    1.0000 </r>
       <r>   10.3235    1.0000 </r>
       <r>   10.3235    1.0000 </r>
       <r>   23.0280    0.0000 </r>
       <r>   23.0280    0.0000 </r>
       <r>   26.6763    0.0000 </r>
       <r>   26.6763    0.0000 </r>
       <r>   31.4600    0.0000 </r>
       <r>   31.4600    0.0000 </r>
      </set>
      <set comment="kpoint 16">
       <r>  -41.4100    1.0000 </r>
       <r>  -41.4100    1.0000 </r>
       <r>  -41.3253    1.0000 </r>
       <r>  -41.3253    1.0000 </r>
       <r>  -41.2947    1.0000 </r>
       <r>  -41.2947    1.0000 </r>
       <r>    4.0560    1.0000 </r>
       <r>    4.0560    1.0000 </r>
       <r>    6.7295    1.0000 </r>
       <r>    6.7295    1.0000 </r>
       <r>    7.5080    1.0000 </r>
       <r>    7.5080    1.0000 </r>
       <r>    8.3891    1.0000 </r>
       <r>    8.3891    1.0000 </r>
       <r>   10.2092    1.0000 </r>
       <r>   10.2092    1.0000 </r>
       <r>   10.5561    1.0000 </r>
       <r>   10.5561    1.0000 </r>
       <r>   23.4808    0.0000 </r>
       <r>   23.4808    0.0000 </r>
       <r>   27.1873    0.0000 </r>
       <r>   27.1873    0.0000 </r>
       <r>   29.1930    0.0000 </r>
       <r>   29.1930    0.0000 </r>
      </set>
      <set comment="kpoint 17">
       <r>  -41.5762    1.0000 </r>
       <r>  -41.5762    1.0000 </r>
       <r>  -41.3410    1.0000 </r>
       <r>  -41.3410    1.0000 </r>
       <r>  -41.3221    1.0000 </r>
       <r>  -41.3221    1.0000 </r>
       <r>    4.8016    1.0000 </r>
       <r>    4.8016    1.0000 </r>
       <r>    6.2149    1.0000 </r>
       <r>    6.2149    1.0000 </r>
       <r>    8.7084    1.0000 </r>
       <r>    8.7084    1.0000 </r>
       <r>    9.3064    1.0000 </r>
       <r>    9.3064    1.0000 </r>
       <r>   10.6552    1.0000 </r>
       <r>   10.6552    1.0000 </r>
       <r>   11.1844    0.0082 </r>
       <r>   11.1845    0.0082 </r>
       <r>   21.5274    0.0000 </r>
       <r>   21.5274    0.0000 </r>
       <r>   25.2700    0.0000 </r>
       <r>   25.2700    0.0000 </r>
       <r>   28.5463    0.0000 </r>
       <r>   28.5463    0.0000 </r>
      </set>
      <set comment="kpoint 18">
       <r>  -41.6659    1.0000 </r>
       <r>  -41.6659    1.0000 </r>
       <r>  -41.3641    1.0000 </r>
       <r>  -41.3640    1.0000 </r>
       <r>  -41.3119    1.0000 </r>
       <r>  -41.3119    1.0000 </r>
       <r>    4.6152    1.0000 </r>
       <r>    4.6152    1.0000 </r>
       <r>    5.9406    1.0000 </r>
       <r>    5.9406    1.0000 </r>
       <r>    9.3121    1.0000 </r>
       <r>    9.3121    1.0000 </r>
       <r>   10.2558    1.0000 </r>
       <r>   10.2558    1.0000 </r>
       <r>   11.5705    0.0000 </r>
       <r>   11.5705    0.0000 </r>
       <r>   12.8388    0.0000 </r>
       <r>   12.8388    0.0000 </r>
       <r>   17.5887    0.0000 </r>
       <r>   17.5887    0.0000 </r>
       <r>   25.2676    0.0000 </r>
       <r>   25.2676    0.0000 </r>
       <r>   26.7378    0.0000 </r>
       <r>   26.7378    0.0000 </r>
      </set>
      <set comment="kpoint 19">
       <r>  -41.5141    1.0000 </r>
       <r>  -41.5141    1.0000 </r>
       <r>  -41.3581    1.0000 </r>
       <r>  -41.3581    1.0000 </r>
       <r>  -41.3157    1.0000 </r>
       <r>  -41.3157    1.0000 </r>
       <r>    5.1325    1.0000 </r>
       <r>    5.1325    1.0000 </r>
       <r>    6.5846    1.0000 </r>
       <r>    6.5846    1.0000 </r>
       <r>    7.1258    1.0000 </r>
       <r>    7.1258    1.0000 </r>
       <r>    9.0753    1.0000 </r>
       <r>    9.0753    1.0000 </r>
       <r>   10.7119    1.0000 </r>
       <r>   10.7119    1.0000 </r>
       <r>   11.0800    0.7101 </r>
       <r>   11.0801    0.7100 </r>
       <r>   23.4645    0.0000 </r>
       <r>   23.4645    0.0000 </r>
       <r>   25.4541    0.0000 </r>
       <r>   25.4541    0.0000 </r>
       <r>   26.5432    0.0000 </r>
       <r>   26.5432    0.0000 </r>
      </set>
      <set comment="kpoint 20">
       <r>  -41.6192    1.0000 </r>
       <r>  -41.6192    1.0000 </r>
       <r>  -41.4219    1.0000 </r>
       <r>  -41.4219    1.0000 </r>
       <r>  -41.3036    1.0000 </r>
       <r>  -41.3036    1.0000 </r>
       <r>    5.2637    1.0000 </r>
       <r>    5.2637    1.0000 </r>
       <r>    6.3804    1.0000 </r>
       <r>    6.3804    1.0000 </r>
       <r>    8.1534    1.0000 </r>
       <r>    8.1534    1.0000 </r>
       <r>    9.1697    1.0000 </r>
       <r>    9.1697    1.0000 </r>
       <r>   11.1222    0.2614 </r>
       <r>   11.1222    0.2614 </r>
       <r>   13.9083    0.0000 </r>
       <r>   13.9083    0.0000 </r>
       <r>   19.1687    0.0000 </r>
       <r>   19.1687    0.0000 </r>
       <r>   23.6825    0.0000 </r>
       <r>   23.6825    0.0000 </r>
       <r>   26.2597    0.0000 </r>
       <r>   26.2597    0.0000 </r>
      </set>
      <set comment="kpoint 21">
       <r>  -41.5664    1.0000 </r>
       <r>  -41.5664    1.0000 </r>
       <r>  -41.5349    1.0000 </r>
       <r>  -41.5349    1.0000 </r>
       <r>  -41.2957    1.0000 </r>
       <r>  -41.2957    1.0000 </r>
       <r>    6.0340    1.0000 </r>
       <r>    6.0340    1.0000 </r>
       <r>    6.6611    1.0000 </r>
       <r>    6.6611    1.0000 </r>
       <r>    7.5118    1.0000 </r>
       <r>    7.5118    1.0000 </r>
       <r>    8.7454    1.0000 </r>
       <r>    8.7454    1.0000 </r>
       <r>   10.9299    1.0000 </r>
       <r>   10.9299    1.0000 </r>
       <r>   17.6682    0.0000 </r>
       <r>   17.6682    0.0000 </r>
       <r>   17.7324    0.0000 </r>
       <r>   17.7324    0.0000 </r>
       <r>   19.9326    0.0000 </r>
       <r>   19.9326    0.0000 </r>
       <r>   28.6445    0.0000 </r>
       <r>   28.6445    0.0000 </r>
      </set>
     </set>
    </set>
   </array>
  </eigenvalues>
  <separator name="orbital magnetization" >
   <v name="MAGDIPOLOUT">      0.00000000      0.00000000      0.00000000</v>
  </separator>
  <dos>
   <i name="efermi">     11.09962051 </i>
   <total>
    <array>
     <dimension dim="1">gridpoints</dimension>
     <dimension dim="2">spin</dimension>
     <field>energy</field>
     <field>total</field>
     <field>integrated</field>
     <set>
      <set comment="spin 1">
       <r>   -45.3631     0.0000     0.0000 </r>
       <r>   -45.0924     0.0000     0.0000 </r>
       <r>   -44.8218     0.0000     0.0000 </r>
       <r>   -44.5512     0.0000     0.0000 </r>
       <r>   -44.2805     0.0000     0.0000 </r>
       <r>   -44.0099     0.0000     0.0000 </r>
       <r>   -43.7393     0.0000     0.0000 </r>
       <r>   -43.4686     0.0000     0.0000 </r>
       <r>   -43.1980     0.0000     0.0000 </r>
       <r>   -42.9273     0.0000     0.0000 </r>
       <r>   -42.6567     0.0000     0.0000 </r>
       <r>   -42.3861     0.0000     0.0000 </r>
       <r>   -42.1154     0.0000     0.0000 </r>
       <r>   -41.8448     0.0000     0.0000 </r>
       <r>   -41.5742     6.8033     1.8412 </r>
       <r>   -41.3035    28.3287     9.5080 </r>
       <r>   -41.0329     9.2078    12.0000 </r>
       <r>   -40.7623     0.0000    12.0000 </r>
       <r>   -40.4916     0.0000    12.0000 </r>
       <r>   -40.2210     0.0000    12.0000 </r>
       <r>   -39.9503     0.0000    12.0000 </r>
       <r>   -39.6797     0.0000    12.0000 </r>
       <r>   -39.4091     0.0000    12.0000 </r>
       <r>   -39.1384     0.0000    12.0000 </r>
       <r>   -38.8678     0.0000    12.0000 </r>
       <r>   -38.5972     0.0000    12.0000 </r>
       <r>   -38.3265     0.0000    12.0000 </r>
       <r>   -38.0559     0.0000    12.0000 </r>
       <r>   -37.7853     0.0000    12.0000 </r>
       <r>   -37.5146     0.0000    12.0000 </r>
       <r>   -37.2440     0.0000    12.0000 </r>
       <r>   -36.9734     0.0000    12.0000 </r>
       <r>   -36.7027     0.0000    12.0000 </r>
       <r>   -36.4321     0.0000    12.0000 </r>
       <r>   -36.1614     0.0000    12.0000 </r>
       <r>   -35.8908     0.0000    12.0000 </r>
       <r>   -35.6202     0.0000    12.0000 </r>
       <r>   -35.3495     0.0000    12.0000 </r>
       <r>   -35.0789     0.0000    12.0000 </r>
       <r>   -34.8083     0.0000    12.0000 </r>
       <r>   -34.5376     0.0000    12.0000 </r>
       <r>   -34.2670     0.0000    12.0000 </r>
       <r>   -33.9964     0.0000    12.0000 </r>
       <r>   -33.7257     0.0000    12.0000 </r>
       <r>   -33.4551     0.0000    12.0000 </r>
       <r>   -33.1844     0.0000    12.0000 </r>
       <r>   -32.9138     0.0000    12.0000 </r>
       <r>   -32.6432     0.0000    12.0000 </r>
       <r>   -32.3725     0.0000    12.0000 </r>
       <r>   -32.1019     0.0000    12.0000 </r>
       <r>   -31.8313     0.0000    12.0000 </r>
       <r>   -31.5606     0.0000    12.0000 </r>
       <r>   -31.2900     0.0000    12.0000 </r>
       <r>   -31.0194     0.0000    12.0000 </r>
       <r>   -30.7487     0.0000    12.0000 </r>
       <r>   -30.4781     0.0000    12.0000 </r>
       <r>   -30.2074     0.0000    12.0000 </r>
       <r>   -29.9368     0.0000    12.0000 </r>
       <r>   -29.6662     0.0000    12.0000 </r>
       <r>   -29.3955     0.0000    12.0000 </r>
       <r>   -29.1249     0.0000    12.0000 </r>
       <r>   -28.8543     0.0000    12.0000 </r>
       <r>   -28.5836     0.0000    12.0000 </r>
       <r>   -28.3130     0.0000    12.0000 </r>
       <r>   -28.0424     0.0000    12.0000 </r>
       <r>   -27.7717     0.0000    12.0000 </r>
       <r>   -27.5011     0.0000    12.0000 </r>
       <r>   -27.2304     0.0000    12.0000 </r>
       <r>   -26.9598     0.0000    12.0000 </r>
       <r>   -26.6892     0.0000    12.0000 </r>
       <r>   -26.4185     0.0000    12.0000 </r>
       <r>   -26.1479     0.0000    12.0000 </r>
       <r>   -25.8773     0.0000    12.0000 </r>
       <r>   -25.6066     0.0000    12.0000 </r>
       <r>   -25.3360     0.0000    12.0000 </r>
       <r>   -25.0654     0.0000    12.0000 </r>
       <r>   -24.7947     0.0000    12.0000 </r>
       <r>   -24.5241     0.0000    12.0000 </r>
       <r>   -24.2535     0.0000    12.0000 </r>
       <r>   -23.9828     0.0000    12.0000 </r>
       <r>   -23.7122     0.0000    12.0000 </r>
       <r>   -23.4415     0.0000    12.0000 </r>
       <r>   -23.1709     0.0000    12.0000 </r>
       <r>   -22.9003     0.0000    12.0000 </r>
       <r>   -22.6296     0.0000    12.0000 </r>
       <r>   -22.3590     0.0000    12.0000 </r>
       <r>   -22.0884     0.0000    12.0000 </r>
       <r>   -21.8177     0.0000    12.0000 </r>
       <r>   -21.5471     0.0000    12.0000 </r>
       <r>   -21.2765     0.0000    12.0000 </r>
       <r>   -21.0058     0.0000    12.0000 </r>
       <r>   -20.7352     0.0000    12.0000 </r>
       <r>   -20.4645     0.0000    12.0000 </r>
       <r>   -20.1939     0.0000    12.0000 </r>
       <r>   -19.9233     0.0000    12.0000 </r>
       <r>   -19.6526     0.0000    12.0000 </r>
       <r>   -19.3820     0.0000    12.0000 </r>
       <r>   -19.1114     0.0000    12.0000 </r>
       <r>   -18.8407     0.0000    12.0000 </r>
       <r>   -18.5701     0.0000    12.0000 </r>
       <r>   -18.2995     0.0000    12.0000 </r>
       <r>   -18.0288     0.0000    12.0000 </r>
       <r>   -17.7582     0.0000    12.0000 </r>
       <r>   -17.4875     0.0000    12.0000 </r>
       <r>   -17.2169     0.0000    12.0000 </r>
       <r>   -16.9463     0.0000    12.0000 </r>
       <r>   -16.6756     0.0000    12.0000 </r>
       <r>   -16.4050     0.0000    12.0000 </r>
       <r>   -16.1344     0.0000    12.0000 </r>
       <r>   -15.8637     0.0000    12.0000 </r>
       <r>   -15.5931     0.0000    12.0000 </r>
       <r>   -15.3225     0.0000    12.0000 </r>
       <r>   -15.0518     0.0000    12.0000 </r>
       <r>   -14.7812     0.0000    12.0000 </r>
       <r>   -14.5105     0.0000    12.0000 </r>
       <r>   -14.2399     0.0000    12.0000 </r>
       <r>   -13.9693     0.0000    12.0000 </r>
       <r>   -13.6986     0.0000    12.0000 </r>
       <r>   -13.4280     0.0000    12.0000 </r>
       <r>   -13.1574     0.0000    12.0000 </r>
       <r>   -12.8867     0.0000    12.0000 </r>
       <r>   -12.6161     0.0000    12.0000 </r>
       <r>   -12.3455     0.0000    12.0000 </r>
       <r>   -12.0748     0.0000    12.0000 </r>
       <r>   -11.8042     0.0000    12.0000 </r>
       <r>   -11.5336     0.0000    12.0000 </r>
       <r>   -11.2629     0.0000    12.0000 </r>
       <r>   -10.9923     0.0000    12.0000 </r>
       <r>   -10.7216     0.0000    12.0000 </r>
       <r>   -10.4510     0.0000    12.0000 </r>
       <r>   -10.1804     0.0000    12.0000 </r>
       <r>    -9.9097     0.0000    12.0000 </r>
       <r>    -9.6391     0.0000    12.0000 </r>
       <r>    -9.3685     0.0000    12.0000 </r>
       <r>    -9.0978     0.0000    12.0000 </r>
       <r>    -8.8272     0.0000    12.0000 </r>
       <r>    -8.5566     0.0000    12.0000 </r>
       <r>    -8.2859     0.0000    12.0000 </r>
       <r>    -8.0153     0.0000    12.0000 </r>
       <r>    -7.7446     0.0000    12.0000 </r>
       <r>    -7.4740     0.0000    12.0000 </r>
       <r>    -7.2034     0.0000    12.0000 </r>
       <r>    -6.9327     0.0000    12.0000 </r>
       <r>    -6.6621     0.0000    12.0000 </r>
       <r>    -6.3915     0.0000    12.0000 </r>
       <r>    -6.1208     0.0000    12.0000 </r>
       <r>    -5.8502     0.0000    12.0000 </r>
       <r>    -5.5796     0.0000    12.0000 </r>
       <r>    -5.3089     0.0000    12.0000 </r>
       <r>    -5.0383     0.0000    12.0000 </r>
       <r>    -4.7676     0.0000    12.0000 </r>
       <r>    -4.4970     0.0000    12.0000 </r>
       <r>    -4.2264     0.0000    12.0000 </r>
       <r>    -3.9557     0.0000    12.0000 </r>
       <r>    -3.6851     0.0000    12.0000 </r>
       <r>    -3.4145     0.0000    12.0000 </r>
       <r>    -3.1438     0.0000    12.0000 </r>
       <r>    -2.8732     0.0000    12.0000 </r>
       <r>    -2.6026     0.0000    12.0000 </r>
       <r>    -2.3319     0.0000    12.0000 </r>
       <r>    -2.0613     0.0000    12.0000 </r>
       <r>    -1.7906     0.0000    12.0000 </r>
       <r>    -1.5200     0.0000    12.0000 </r>
       <r>    -1.2494     0.0000    12.0000 </r>
       <r>    -0.9787     0.0000    12.0000 </r>
       <r>    -0.7081     0.0000    12.0000 </r>
       <r>    -0.4375     0.0000    12.0000 </r>
       <r>    -0.1668     0.0000    12.0000 </r>
       <r>     0.1038     0.0000    12.0000 </r>
       <r>     0.3744     0.0000    12.0000 </r>
       <r>     0.6451     0.0000    12.0000 </r>
       <r>     0.9157     0.0000    12.0000 </r>
       <r>     1.1863     0.0000    12.0000 </r>
       <r>     1.4570     0.0426    12.0115 </r>
       <r>     1.7276     0.0087    12.0139 </r>
       <r>     1.9983     0.0961    12.0399 </r>
       <r>     2.2689     0.0067    12.0417 </r>
       <r>     2.5395     0.3078    12.1250 </r>
       <r>     2.8102     0.0302    12.1332 </r>
       <r>     3.0808     0.5861    12.2918 </r>
       <r>     3.3514     0.1022    12.3194 </r>
       <r>     3.6221     0.0000    12.3194 </r>
       <r>     3.8927     0.0020    12.3200 </r>
       <r>     4.1633     1.0746    12.6108 </r>
       <r>     4.4340     1.5535    13.0313 </r>
       <r>     4.7046     0.6205    13.1992 </r>
       <r>     4.9753     2.1361    13.7773 </r>
       <r>     5.2459     3.0260    14.5962 </r>
       <r>     5.5165     1.8303    15.0916 </r>
       <r>     5.7872     2.4581    15.7568 </r>
       <r>     6.0578     1.6944    16.2154 </r>
       <r>     6.3284     4.2113    17.3551 </r>
       <r>     6.5991     3.5549    18.3172 </r>
       <r>     6.8697     2.6274    19.0282 </r>
       <r>     7.1403     2.3400    19.6616 </r>
       <r>     7.4110     2.3492    20.2973 </r>
       <r>     7.6816     4.7461    21.5818 </r>
       <r>     7.9523     1.6652    22.0325 </r>
       <r>     8.2229     4.7020    23.3050 </r>
       <r>     8.4935     3.2956    24.1969 </r>
       <r>     8.7642     4.9543    25.5377 </r>
       <r>     9.0348     2.1934    26.1314 </r>
       <r>     9.3054     2.8168    26.8937 </r>
       <r>     9.5761     1.8310    27.3892 </r>
       <r>     9.8467     0.4092    27.5000 </r>
       <r>    10.1173     3.6818    28.4964 </r>
       <r>    10.3880     4.1492    29.6194 </r>
       <r>    10.6586     3.1230    30.4646 </r>
       <r>    10.9293     3.6095    31.4415 </r>
       <r>    11.1999     4.3623    32.6220 </r>
       <r>    11.4705     1.6308    33.0634 </r>
       <r>    11.7412     1.0986    33.3607 </r>
       <r>    12.0118     0.0309    33.3691 </r>
       <r>    12.2824     0.5864    33.5278 </r>
       <r>    12.5531     0.2992    33.6088 </r>
       <r>    12.8237     0.1117    33.6390 </r>
       <r>    13.0943     0.2060    33.6947 </r>
       <r>    13.3650     1.9647    34.2265 </r>
       <r>    13.6356     1.0372    34.5071 </r>
       <r>    13.9062     0.8170    34.7283 </r>
       <r>    14.1769     0.9518    34.9859 </r>
       <r>    14.4475     0.2633    35.0571 </r>
       <r>    14.7182     0.0455    35.0694 </r>
       <r>    14.9888     0.1536    35.1110 </r>
       <r>    15.2594     0.0003    35.1111 </r>
       <r>    15.5301     0.0872    35.1347 </r>
       <r>    15.8007     0.4925    35.2680 </r>
       <r>    16.0713     2.1462    35.8488 </r>
       <r>    16.3420     0.0967    35.8750 </r>
       <r>    16.6126     0.0000    35.8750 </r>
       <r>    16.8832     0.0277    35.8825 </r>
       <r>    17.1539     0.7975    36.0983 </r>
       <r>    17.4245     0.2012    36.1528 </r>
       <r>    17.6952     0.8026    36.3700 </r>
       <r>    17.9658     1.7375    36.8402 </r>
       <r>    18.2364     1.1517    37.1519 </r>
       <r>    18.5071     0.1662    37.1969 </r>
       <r>    18.7777     0.0936    37.2222 </r>
       <r>    19.0483     0.5913    37.3823 </r>
       <r>    19.3190     1.2562    37.7222 </r>
       <r>    19.5896     0.6156    37.8888 </r>
       <r>    19.8602     0.3379    37.9803 </r>
       <r>    20.1309     0.6817    38.1648 </r>
       <r>    20.4015     1.6712    38.6170 </r>
       <r>    20.6722     1.5835    39.0456 </r>
       <r>    20.9428     0.0368    39.0556 </r>
       <r>    21.2134     0.0000    39.0556 </r>
       <r>    21.4841     0.0677    39.0739 </r>
       <r>    21.7547     2.2647    39.6868 </r>
       <r>    22.0253     0.3362    39.7778 </r>
       <r>    22.2960     0.0000    39.7778 </r>
       <r>    22.5666     0.0000    39.7778 </r>
       <r>    22.8372     0.0015    39.7782 </r>
       <r>    23.1079     0.5171    39.9181 </r>
       <r>    23.3785     0.5191    40.0586 </r>
       <r>    23.6492     1.6876    40.5153 </r>
       <r>    23.9198     1.9840    41.0523 </r>
       <r>    24.1904     0.7459    41.2542 </r>
       <r>    24.4611     2.8535    42.0264 </r>
       <r>    24.7317     0.0051    42.0278 </r>
       <r>    25.0023     0.3079    42.1111 </r>
       <r>    25.2730     0.8810    42.3496 </r>
       <r>    25.5436     1.4220    42.7344 </r>
       <r>    25.8142     1.4990    43.1401 </r>
       <r>    26.0849     0.4815    43.2704 </r>
       <r>    26.3555     2.6402    43.9849 </r>
       <r>    26.6261     0.9304    44.2368 </r>
       <r>    26.8968     1.0660    44.5253 </r>
       <r>    27.1674     2.8947    45.3087 </r>
       <r>    27.4381     1.7119    45.7720 </r>
       <r>    27.7087     0.7903    45.9859 </r>
       <r>    27.9793     0.1147    46.0169 </r>
       <r>    28.2500     1.0165    46.2920 </r>
       <r>    28.5206     0.2971    46.3724 </r>
       <r>    28.7912     2.0469    46.9264 </r>
       <r>    29.0619     0.7180    47.1207 </r>
       <r>    29.3325     0.9910    47.3889 </r>
       <r>    29.6031     1.5058    47.7964 </r>
       <r>    29.8738     0.2702    47.8696 </r>
       <r>    30.1444     0.0714    47.8889 </r>
       <r>    30.4151     0.0000    47.8889 </r>
       <r>    30.6857     0.0000    47.8889 </r>
       <r>    30.9563     0.0000    47.8889 </r>
       <r>    31.2270     0.2052    47.9444 </r>
       <r>    31.4976     0.0879    47.9682 </r>
       <r>    31.7682     0.0148    47.9722 </r>
       <r>    32.0389     0.0003    47.9723 </r>
       <r>    32.3095     0.1024    48.0000 </r>
       <r>    32.5801     0.0000    48.0000 </r>
       <r>    32.8508     0.0000    48.0000 </r>
       <r>    33.1214     0.0000    48.0000 </r>
       <r>    33.3921     0.0000    48.0000 </r>
       <r>    33.6627     0.0000    48.0000 </r>
       <r>    33.9333     0.0000    48.0000 </r>
       <r>    34.2040     0.0000    48.0000 </r>
       <r>    34.4746     0.0000    48.0000 </r>
       <r>    34.7452     0.0000    48.0000 </r>
       <r>    35.0159     0.0000    48.0000 </r>
       <r>    35.2865     0.0000    48.0000 </r>
       <r>    35.5571     0.0000    48.0000 </r>
       <r>    35.8278     0.0000    48.0000 </r>
      </set>
     </set>
    </array>
   </total>
  </dos>
 </calculation>
 <structure name="finalpos" >
  <crystal>
   <varray name="basis" >
    <v>       2.76000000       0.00000000       0.00000000 </v>
    <v>      -1.38000000       2.39023011       0.00000000 </v>
    <v>       0.00000000       0.00000000       4.79000000 </v>
   </varray>
   <i name="volume">     31.59979821 </i>
   <varray name="rec_basis" >
    <v>       0.36231884       0.20918488       0.00000000 </v>
    <v>       0.00000000       0.41836976       0.00000000 </v>
    <v>       0.00000000       0.00000000       0.20876827 </v>
   </varray>
  </crystal>
  <varray name="positions" >
   <v>       0.00000000       0.00000000       0.00000000 </v>
   <v>       0.33333333       0.66666667       0.50000000 </v>
  </varray>
 </structure>
</modeling>
