Pt-fcc                                  
   1.00000000000000     
     0.000000    2.058003    2.058003
     2.058003    0.000000    2.058003
     2.058003    2.058003    0.000000
   Pt
     1
Direct
  0.000000  0.000000  0.000000
 
   40   40   40
  152.62      152.47      151.60      148.90      143.04      133.05      118.77      101.09      81.731      62.784    
  46.099      32.828      23.230      16.786      12.507      9.5722      7.6292      6.3944      5.6518      5.2585    
  5.1357      5.2585      5.6518      6.3944      7.6292      9.5722      12.507      16.786      23.230      32.828    
  46.099      62.784      81.731      101.09      118.77      133.05      143.04      148.90      151.60      152.47    
  152.47      151.96      150.15      145.81      137.75      125.43      109.23      90.516      71.238      53.404    
  38.522      27.270      19.471      14.319      10.812      8.4393      6.8994      5.9431      5.3941      5.1447    
  5.1447      5.3941      5.9431      6.8994      8.4393      10.812      14.319      19.471      27.270      38.522    
  53.404      71.238      90.516      109.23      125.43      137.75      145.81      150.15      151.96      152.47    
  151.60      150.15      146.65      139.96      129.30      114.69      97.059      78.109      59.810      43.866    
  31.289      22.245      16.174      12.103      9.3020      7.4456      6.2632      5.5500      5.1713      5.0528    
  5.1713      5.5500      6.2632      7.4456      9.3020      12.103      16.174      22.245      31.289      43.866    
  59.810      78.109      97.059      114.69      129.30      139.96      146.65      150.15      151.60      151.96    
  148.90      145.81      139.96      130.56      117.40      101.07      82.924      64.779      48.372      34.927    
  24.899      17.989      13.372      10.175      8.0115      6.6022      5.7222      5.2140      4.9820      4.9820    
  5.2140      5.7222      6.6022      8.0114      10.175      13.372      17.989      24.899      34.927      48.372    
  64.779      82.924      101.07      117.40      130.56      139.96      145.81      148.90      150.15      150.15    
  143.04      137.75      129.30      117.40      102.41      85.396      67.916      51.625      37.828      27.185    
  19.633      14.533      11.006      8.5671      6.9448      5.9038      5.2700      4.9305      4.8238      4.9305    
  5.2700      5.9038      6.9448      8.5671      11.006      14.533      19.633      27.185      37.828      51.625    
  67.916      85.396      102.41      117.40      129.30      137.75      143.04      145.81      146.65      145.81    
  133.05      125.43      114.69      101.07      85.396      68.988      53.327      39.697      28.865      20.954    
  15.508      11.735      9.0764      7.2712      6.0850      5.3350      4.8962      4.6939      4.6939      4.8962    
  5.3350      6.0850      7.2712      9.0764      11.735      15.508      20.954      28.865      39.697      53.327    
  68.988      85.396      101.07      114.69      125.43      133.05      137.75      139.96      139.96      137.75    
  118.77      109.23      97.059      82.924      67.916      53.327      40.342      29.755      21.811      16.216    
  12.304      9.5015      7.5586      6.2534      5.4030      4.8762      4.5897      4.4989      4.5898      4.8762    
  5.4030      6.2534      7.5586      9.5015      12.304      16.216      21.811      29.755      40.342      53.327    
  67.916      82.924      97.059      109.23      118.77      125.43      129.30      130.56      129.30      125.43    
  101.09      90.516      78.109      64.779      51.625      39.697      29.755      22.109      16.590      12.667    
  9.8074      7.7841      6.3957      5.4671      4.8672      4.5089      4.3412      4.3412      4.5089      4.8672    
  5.4671      6.3957      7.7841      9.8074      12.667      16.590      22.109      29.755      39.697      51.625    
  64.779      78.109      90.516      101.09      109.23      114.69      117.40      117.40      114.69      109.23    
  81.731      71.238      59.810      48.372      37.828      28.865      21.811      16.590      12.791      9.9676    
  7.9283      6.4990      5.5197      4.8652      4.4490      4.2177      4.1435      4.2177      4.4490      4.8652    
  5.5197      6.4990      7.9283      9.9676      12.791      16.590      21.811      28.865      37.828      48.372    
  59.810      71.238      81.731      90.516      97.059      101.07      102.41      101.07      97.059      90.516    
  62.784      53.404      43.866      34.927      27.185      20.954      16.216      12.667      9.9676      7.9779    
  6.5534      5.5543      4.8665      4.4081      4.1265      3.9922      3.9922      4.1265      4.4081      4.8665    
  5.5543      6.5534      7.9779      9.9676      12.667      16.216      20.954      27.185      34.927      43.866    
  53.404      62.784      71.238      78.109      82.924      85.396      85.396      82.924      78.109      71.238    
  46.099      38.522      31.289      24.899      19.633      15.508      12.304      9.8074      7.9283      6.5534    
  5.5664      4.8681      4.3844      4.0663      3.8850      3.8259      3.8850      4.0663      4.3844      4.8681    
  5.5664      6.5534      7.9283      9.8074      12.304      15.507      19.633      24.899      31.289      38.522    
  46.099      53.404      59.810      64.779      67.916      68.988      67.916      64.779      59.810      53.404    
  32.828      27.270      22.245      17.989      14.533      11.735      9.5015      7.7841      6.4990      5.5543    
  4.8681      4.3766      4.0364      3.8209      3.7159      3.7159      3.8209      4.0364      4.3766      4.8681    
  5.5543      6.4990      7.7841      9.5015      11.735      14.533      17.989      22.245      27.270      32.828    
  38.522      43.866      48.372      51.625      53.327      53.327      51.625      48.372      43.866      38.522    
  23.230      19.471      16.174      13.372      11.006      9.0764      7.5586      6.3957      5.5197      4.8665    
  4.3844      4.0364      3.7995      3.6611      3.6155      3.6611      3.7995      4.0364      4.3844      4.8665    
  5.5197      6.3957      7.5586      9.0764      11.006      13.372      16.174      19.471      23.230      27.270    
  31.289      34.927      37.828      39.697      40.342      39.697      37.828      34.927      31.289      27.270    
  16.786      14.319      12.103      10.175      8.5671      7.2712      6.2534      5.4671      4.8652      4.4081    
  4.0663      3.8209      3.6611      3.5821      3.5821      3.6611      3.8209      4.0663      4.4081      4.8652    
  5.4671      6.2534      7.2712      8.5671      10.175      12.103      14.319      16.786      19.471      22.245    
  24.899      27.185      28.865      29.755      29.755      28.865      27.185      24.899      22.245      19.471    
  12.507      10.812      9.3020      8.0115      6.9448      6.0850      5.4030      4.8672      4.4490      4.1265    
  3.8850      3.7159      3.6155      3.5821      3.6155      3.7159      3.8850      4.1265      4.4490      4.8672    
  5.4030      6.0850      6.9449      8.0115      9.3020      10.812      12.507      14.319      16.174      17.989    
  19.633      20.954      21.811      22.109      21.811      20.954      19.633      17.989      16.174      14.319    
  9.5722      8.4393      7.4456      6.6022      5.9038      5.3350      4.8762      4.5089      4.2177      3.9922    
  3.8259      3.7159      3.6611      3.6611      3.7159      3.8259      3.9922      4.2177      4.5089      4.8762    
  5.3350      5.9038      6.6022      7.4456      8.4393      9.5722      10.812      12.103      13.372      14.533    
  15.507      16.216      16.590      16.590      16.216      15.508      14.533      13.372      12.103      10.812    
  7.6292      6.8994      6.2632      5.7222      5.2700      4.8962      4.5897      4.3412      4.1435      3.9922    
  3.8850      3.8209      3.7995      3.8209      3.8850      3.9922      4.1435      4.3412      4.5897      4.8962    
  5.2700      5.7222      6.2632      6.8994      7.6292      8.4393      9.3020      10.175      11.006      11.735    
  12.304      12.667      12.791      12.667      12.304      11.735      11.006      10.175      9.3020      8.4393    
  6.3944      5.9431      5.5500      5.2140      4.9305      4.6939      4.4989      4.3412      4.2177      4.1265    
  4.0663      4.0364      4.0364      4.0663      4.1265      4.2177      4.3412      4.4989      4.6939      4.9305    
  5.2140      5.5500      5.9431      6.3944      6.8994      7.4456      8.0115      8.5671      9.0764      9.5015    
  9.8074      9.9676      9.9676      9.8074      9.5015      9.0764      8.5671      8.0114      7.4456      6.8994    
  5.6518      5.3941      5.1713      4.9820      4.8238      4.6939      4.5898      4.5089      4.4490      4.4081    
  4.3844      4.3766      4.3844      4.4081      4.4490      4.5089      4.5897      4.6939      4.8238      4.9820    
  5.1713      5.3941      5.6518      5.9431      6.2632      6.6022      6.9449      7.2712      7.5586      7.7841    
  7.9283      7.9779      7.9283      7.7841      7.5586      7.2712      6.9448      6.6022      6.2632      5.9431    
  5.2585      5.1447      5.0528      4.9820      4.9305      4.8962      4.8762      4.8672      4.8652      4.8665    
  4.8681      4.8681      4.8665      4.8652      4.8672      4.8762      4.8962      4.9305      4.9820      5.0528    
  5.1447      5.2584      5.3941      5.5500      5.7222      5.9038      6.0850      6.2534      6.3957      6.4990    
  6.5534      6.5534      6.4990      6.3957      6.2534      6.0850      5.9038      5.7222      5.5500      5.3941    
  5.1357      5.1447      5.1713      5.2140      5.2700      5.3350      5.4030      5.4671      5.5197      5.5543    
  5.5664      5.5543      5.5197      5.4671      5.4030      5.3350      5.2700      5.2140      5.1713      5.1447    
  5.1357      5.1447      5.1713      5.2140      5.2700      5.3350      5.4030      5.4671      5.5197      5.5543    
  5.5664      5.5543      5.5197      5.4671      5.4030      5.3350      5.2700      5.2140      5.1713      5.1447    
  5.2585      5.3941      5.5500      5.7222      5.9038      6.0850      6.2534      6.3957      6.4990      6.5534    
  6.5534      6.4990      6.3957      6.2534      6.0850      5.9038      5.7222      5.5500      5.3941      5.2584    
  5.1447      5.0528      4.9820      4.9305      4.8962      4.8762      4.8672      4.8652      4.8665      4.8681    
  4.8681      4.8665      4.8652      4.8672      4.8762      4.8962      4.9305      4.9820      5.0528      5.1447    
  5.6518      5.9431      6.2632      6.6022      6.9448      7.2712      7.5586      7.7841      7.9283      7.9779    
  7.9283      7.7841      7.5586      7.2712      6.9449      6.6022      6.2632      5.9431      5.6518      5.3941    
  5.1713      4.9820      4.8238      4.6939      4.5897      4.5089      4.4490      4.4081      4.3844      4.3766    
  4.3844      4.4081      4.4490      4.5089      4.5898      4.6939      4.8238      4.9820      5.1713      5.3941    
  6.3944      6.8994      7.4456      8.0114      8.5671      9.0764      9.5015      9.8074      9.9676      9.9676    
  9.8074      9.5015      9.0764      8.5671      8.0115      7.4456      6.8994      6.3944      5.9431      5.5500    
  5.2140      4.9305      4.6939      4.4989      4.3412      4.2177      4.1265      4.0663      4.0364      4.0364    
  4.0663      4.1265      4.2177      4.3412      4.4989      4.6939      4.9305      5.2140      5.5500      5.9431    
  7.6292      8.4393      9.3020      10.175      11.006      11.735      12.304      12.667      12.791      12.667    
  12.304      11.735      11.006      10.175      9.3020      8.4393      7.6292      6.8994      6.2632      5.7222    
  5.2700      4.8962      4.5897      4.3412      4.1435      3.9922      3.8850      3.8209      3.7995      3.8209    
  3.8850      3.9922      4.1435      4.3412      4.5897      4.8962      5.2700      5.7222      6.2632      6.8994    
  9.5722      10.812      12.103      13.372      14.533      15.508      16.216      16.590      16.590      16.216    
  15.507      14.533      13.372      12.103      10.812      9.5722      8.4393      7.4456      6.6022      5.9038    
  5.3350      4.8762      4.5089      4.2177      3.9922      3.8259      3.7159      3.6611      3.6611      3.7159    
  3.8259      3.9922      4.2177      4.5089      4.8762      5.3350      5.9038      6.6022      7.4456      8.4393    
  12.507      14.319      16.174      17.989      19.633      20.954      21.811      22.109      21.811      20.954    
  19.633      17.989      16.174      14.319      12.507      10.812      9.3020      8.0115      6.9449      6.0850    
  5.4030      4.8672      4.4490      4.1265      3.8850      3.7159      3.6155      3.5821      3.6155      3.7159    
  3.8850      4.1265      4.4490      4.8672      5.4030      6.0850      6.9448      8.0115      9.3020      10.812    
  16.786      19.471      22.245      24.899      27.185      28.865      29.755      29.755      28.865      27.185    
  24.899      22.245      19.471      16.786      14.319      12.103      10.175      8.5671      7.2712      6.2534    
  5.4671      4.8652      4.4081      4.0663      3.8209      3.6611      3.5821      3.5821      3.6611      3.8209    
  4.0663      4.4081      4.8652      5.4671      6.2534      7.2712      8.5671      10.175      12.103      14.319    
  23.230      27.270      31.289      34.927      37.828      39.697      40.342      39.697      37.828      34.927    
  31.289      27.270      23.230      19.471      16.174      13.372      11.006      9.0764      7.5586      6.3957    
  5.5197      4.8665      4.3844      4.0364      3.7995      3.6611      3.6155      3.6611      3.7995      4.0364    
  4.3844      4.8665      5.5197      6.3957      7.5586      9.0764      11.006      13.372      16.174      19.471    
  32.828      38.522      43.866      48.372      51.625      53.327      53.327      51.625      48.372      43.866    
  38.522      32.828      27.270      22.245      17.989      14.533      11.735      9.5015      7.7841      6.4990    
  5.5543      4.8681      4.3766      4.0364      3.8209      3.7159      3.7159      3.8209      4.0364      4.3766    
  4.8681      5.5543      6.4990      7.7841      9.5015      11.735      14.533      17.989      22.245      27.270    
  46.099      53.404      59.810      64.779      67.916      68.988      67.916      64.779      59.810      53.404    
  46.099      38.522      31.289      24.899      19.633      15.507      12.304      9.8074      7.9283      6.5534    
  5.5664      4.8681      4.3844      4.0663      3.8850      3.8259      3.8850      4.0663      4.3844      4.8681    
  5.5664      6.5534      7.9283      9.8074      12.304      15.508      19.633      24.899      31.289      38.522    
  62.784      71.238      78.109      82.924      85.396      85.396      82.924      78.109      71.238      62.784    
  53.404      43.866      34.927      27.185      20.954      16.216      12.667      9.9676      7.9779      6.5534    
  5.5543      4.8665      4.4081      4.1265      3.9922      3.9922      4.1265      4.4081      4.8665      5.5543    
  6.5534      7.9779      9.9676      12.667      16.216      20.954      27.185      34.927      43.866      53.404    
  81.731      90.516      97.059      101.07      102.41      101.07      97.059      90.516      81.731      71.238    
  59.810      48.372      37.828      28.865      21.811      16.590      12.791      9.9676      7.9283      6.4990    
  5.5197      4.8652      4.4490      4.2177      4.1435      4.2177      4.4490      4.8652      5.5197      6.4990    
  7.9283      9.9676      12.791      16.590      21.811      28.865      37.828      48.372      59.810      71.238    
  101.09      109.23      114.69      117.40      117.40      114.69      109.23      101.09      90.516      78.109    
  64.779      51.625      39.697      29.755      22.109      16.590      12.667      9.8074      7.7841      6.3957    
  5.4671      4.8672      4.5089      4.3412      4.3412      4.5089      4.8672      5.4671      6.3957      7.7841    
  9.8074      12.667      16.590      22.109      29.755      39.697      51.625      64.779      78.109      90.516    
  118.77      125.43      129.30      130.56      129.30      125.43      118.77      109.23      97.059      82.924    
  67.916      53.327      40.342      29.755      21.811      16.216      12.304      9.5015      7.5586      6.2534    
  5.4030      4.8762      4.5898      4.4989      4.5897      4.8762      5.4030      6.2534      7.5586      9.5015    
  12.304      16.216      21.811      29.755      40.342      53.327      67.916      82.924      97.059      109.23    
  133.05      137.75      139.96      139.96      137.75      133.05      125.43      114.69      101.07      85.396    
  68.988      53.327      39.697      28.865      20.954      15.508      11.735      9.0764      7.2712      6.0850    
  5.3350      4.8962      4.6939      4.6939      4.8962      5.3350      6.0850      7.2712      9.0764      11.735    
  15.508      20.954      28.865      39.697      53.327      68.988      85.396      101.07      114.69      125.43    
  143.04      145.81      146.65      145.81      143.04      137.75      129.30      117.40      102.41      85.396    
  67.916      51.625      37.828      27.185      19.633      14.533      11.006      8.5671      6.9448      5.9038    
  5.2700      4.9305      4.8238      4.9305      5.2700      5.9038      6.9448      8.5671      11.006      14.533    
  19.633      27.185      37.828      51.625      67.916      85.396      102.41      117.40      129.30      137.75    
  148.90      150.15      150.15      148.90      145.81      139.96      130.56      117.40      101.07      82.924    
  64.779      48.372      34.927      24.899      17.989      13.372      10.175      8.0114      6.6022      5.7222    
  5.2140      4.9820      4.9820      5.2140      5.7222      6.6022      8.0115      10.175      13.372      17.989    
  24.899      34.927      48.372      64.779      82.924      101.07      117.40      130.56      139.96      145.81    
  151.60      151.96      151.60      150.15      146.65      139.96      129.30      114.69      97.059      78.109    
  59.810      43.866      31.289      22.245      16.174      12.103      9.3020      7.4456      6.2632      5.5500    
  5.1713      5.0528      5.1713      5.5500      6.2632      7.4456      9.3020      12.103      16.174      22.245    
  31.289      43.866      59.810      78.109      97.059      114.69      129.30      139.96      146.65      150.15    
  152.47      152.47      151.96      150.15      145.81      137.75      125.43      109.23      90.516      71.238    
  53.404      38.522      27.270      19.471      14.319      10.812      8.4393      6.8994      5.9431      5.3941    
  5.1447      5.1447      5.3941      5.9431      6.8994      8.4393      10.812      14.319      19.471      27.270    
  38.522      53.404      71.238      90.516      109.23      125.43      137.75      145.81      150.15      151.96    
  152.47      151.96      150.15      145.81      137.75      125.43      109.23      90.516      71.238      53.404    
  38.522      27.270      19.471      14.319      10.812      8.4393      6.8994      5.9431      5.3941      5.1447    
  5.1447      5.3941      5.9431      6.8994      8.4393      10.812      14.319      19.471      27.270      38.522    
  53.404      71.238      90.516      109.23      125.43      137.75      145.81      150.15      151.96      152.47    
  151.96      150.64      147.31      140.81      130.31      115.78      98.143      79.098      60.637      44.498    
  31.732      22.533      16.355      12.225      9.3853      7.5040      6.3065      5.5848      5.2019      5.0822    
  5.2019      5.5848      6.3065      7.5040      9.3853      12.225      16.355      22.533      31.732      44.498    
  60.637      79.098      98.143      115.78      130.31      140.81      147.31      150.64      151.96      152.28    
  150.15      147.31      141.75      132.62      119.62      103.30      84.997      66.556      49.773      35.940    
  25.575      18.416      13.650      10.366      8.1434      6.6971      5.7955      5.2758      5.0389      5.0389    
  5.2758      5.7955      6.6971      8.1434      10.366      13.650      18.416      25.575      35.940      49.773    
  66.556      84.997      103.30      119.62      132.62      141.75      147.31      150.15      151.26      151.26    
  145.81      140.81      132.62      120.89      105.88      88.629      70.725      53.884      39.504      28.332    
  20.368      15.003      11.327      8.7875      7.0999      6.0194      5.3636      5.0133      4.9034      5.0133    
  5.3636      6.0195      7.0999      8.7875      11.327      15.003      20.368      28.332      39.504      53.884    
  70.725      88.629      105.88      120.89      132.62      140.81      145.81      148.36      149.12      148.36    
  137.75      130.31      119.62      105.88      89.853      72.873      56.489      42.085      30.535      22.044    
  16.201      12.205      9.3979      7.4940      6.2464      5.4609      5.0032      4.7930      4.7930      5.0032    
  5.4609      6.2464      7.4940      9.3979      12.205      16.201      22.044      30.535      42.085      56.489    
  72.873      89.853      105.88      119.62      130.31      137.75      142.28      144.37      144.37      142.28    
  125.43      115.78      103.30      88.629      72.873      57.380      43.438      31.956      23.273      17.152    
  12.933      9.9323      7.8544      6.4632      5.5613      5.0058      4.7053      4.6102      4.7053      5.0058    
  5.5613      6.4632      7.8544      9.9323      12.933      17.152      23.273      31.956      43.438      57.380    
  72.873      88.629      103.30      115.78      125.43      132.10      135.93      137.18      135.93      132.10    
  109.23      98.143      84.997      70.725      56.489      43.438      32.447      23.924      17.766      13.454    
  10.350      8.1548      6.6544      5.6570      5.0173      4.6378      4.4611      4.4611      4.6378      5.0173    
  5.6570      6.6544      8.1548      10.350      13.454      17.766      23.924      32.447      43.438      56.489    
  70.725      84.997      98.143      109.23      117.70      123.33      126.12      126.12      123.33      117.70    
  90.516      79.098      66.556      53.884      42.085      31.956      23.924      17.978      13.726      10.615    
  8.3708      6.8047      5.7392      5.0333      4.5882      4.3426      4.2641      4.3426      4.5882      5.0333    
  5.7392      6.8047      8.3708      10.615      13.726      17.978      23.924      31.956      42.085      53.884    
  66.556      79.098      90.516      100.01      107.03      111.31      112.75      111.31      107.03      100.01    
  71.238      60.637      49.773      39.504      30.535      23.273      17.766      13.726      10.706      8.4838    
  6.9010      5.7997      5.0491      4.5539      4.2525      4.1096      4.1096      4.2525      4.5539      5.0491    
  5.7997      6.9010      8.4838      10.706      13.726      17.766      23.273      30.535      39.504      49.773    
  60.637      71.238      80.728      88.403      93.761      96.505      96.505      93.761      88.403      80.728    
  53.404      44.498      35.940      28.332      22.044      17.152      13.454      10.615      8.4838      6.9341    
  5.8317      5.0605      4.5326      4.1893      3.9950      3.9321      3.9950      4.1893      4.5326      5.0605    
  5.8317      6.9341      8.4838      10.615      13.454      17.152      22.044      28.332      35.940      44.498    
  53.404      61.937      69.383      75.139      78.765      80.002      78.765      75.139      69.383      61.937    
  38.522      31.732      25.575      20.368      16.201      12.933      10.350      8.3708      6.9010      5.8317    
  5.0646      4.5225      4.1518      3.9191      3.8065      3.8065      3.9191      4.1517      4.5225      5.0646    
  5.8317      6.9010      8.3708      10.350      12.933      16.201      20.368      25.575      31.732      38.522    
  45.445      51.916      57.354      61.269      63.316      63.316      61.269      57.354      51.916      45.445    
  27.270      22.533      18.416      15.003      12.205      9.9323      8.1548      6.8047      5.7997      5.0605    
  4.5225      4.1393      3.8812      3.7314      3.6822      3.7314      3.8812      4.1393      4.5225      5.0605    
  5.7997      6.8047      8.1548      9.9323      12.205      15.003      18.416      22.533      27.270      32.367    
  37.431      42.004      45.643      47.984      48.791      47.984      45.643      42.004      37.431      32.367    
  19.471      16.355      13.650      11.327      9.3979      7.8544      6.6544      5.7392      5.0491      4.5326    
  4.1518      3.8812      3.7064      3.6203      3.6203      3.7064      3.8812      4.1517      4.5326      5.0491    
  5.7392      6.6544      7.8544      9.3979      11.327      13.650      16.355      19.471      22.930      26.536    
  29.995      32.976      35.166      36.326      36.326      35.166      32.976      29.995      26.536      22.930    
  14.319      12.225      10.366      8.7875      7.4940      6.4632      5.6570      5.0333      4.5539      4.1893    
  3.9191      3.7314      3.6203      3.5835      3.6203      3.7314      3.9191      4.1893      4.5539      5.0333    
  5.6570      6.4632      7.4940      8.7875      10.366      12.225      14.319      16.598      19.007      21.409    
  23.608      25.384      26.540      26.941      26.540      25.384      23.608      21.409      19.007      16.598    
  10.812      9.3853      8.1434      7.0999      6.2464      5.5613      5.0173      4.5882      4.2525      3.9950    
  3.8065      3.6822      3.6203      3.6203      3.6822      3.8065      3.9950      4.2525      4.5882      5.0173    
  5.5613      6.2465      7.0999      8.1434      9.3853      10.812      12.381      14.021      15.648      17.174    
  18.483      19.445      19.957      19.957      19.445      18.483      17.174      15.648      14.021      12.381    
  8.4393      7.5040      6.6971      6.0194      5.4609      5.0058      4.6378      4.3426      4.1096      3.9321    
  3.8065      3.7314      3.7064      3.7314      3.8065      3.9321      4.1096      4.3426      4.6378      5.0058    
  5.4609      6.0195      6.6971      7.5040      8.4393      9.4859      10.607      11.747      12.835      13.790    
  14.539      15.019      15.184      15.019      14.539      13.790      12.835      11.747      10.607      9.4859    
  6.8994      6.3065      5.7955      5.3636      5.0032      4.7053      4.4611      4.2641      4.1096      3.9950    
  3.9191      3.8812      3.8812      3.9191      3.9950      4.1096      4.2641      4.4611      4.7053      5.0032    
  5.3636      5.7955      6.3065      6.8994      7.5688      8.2981      9.0579      9.8069      10.495      11.071    
  11.486      11.703      11.703      11.486      11.071      10.495      9.8069      9.0578      8.2980      7.5688    
  5.9431      5.5848      5.2758      5.0133      4.7930      4.6102      4.4611      4.3426      4.2525      4.1893    
  4.1517      4.1393      4.1517      4.1893      4.2525      4.3426      4.4611      4.6102      4.7930      5.0133    
  5.2758      5.5848      5.9431      6.3497      6.7981      7.2744      7.7568      8.2171      8.6226      8.9410    
  9.1446      9.2146      9.1446      8.9410      8.6226      8.2171      7.7568      7.2743      6.7981      6.3497    
  5.3941      5.2019      5.0389      4.9034      4.7930      4.7053      4.6378      4.5882      4.5539      4.5326    
  4.5225      4.5225      4.5326      4.5539      4.5882      4.6378      4.7053      4.7930      4.9034      5.0389    
  5.2019      5.3941      5.6159      5.8651      6.1361      6.4186      6.6980      6.9560      7.1728      7.3297    
  7.4122      7.4122      7.3297      7.1728      6.9560      6.6980      6.4186      6.1361      5.8651      5.6159    
  5.1447      5.0822      5.0389      5.0133      5.0032      5.0058      5.0173      5.0333      5.0491      5.0605    
  5.0646      5.0605      5.0491      5.0333      5.0173      5.0058      5.0032      5.0133      5.0389      5.0822    
  5.1447      5.2269      5.3285      5.4476      5.5800      5.7190      5.8554      5.9784      6.0766      6.1401    
  6.1621      6.1401      6.0766      5.9784      5.8554      5.7190      5.5800      5.4476      5.3285      5.2269    
  5.1447      5.2019      5.2758      5.3636      5.4609      5.5613      5.6570      5.7392      5.7997      5.8317    
  5.8317      5.7997      5.7392      5.6570      5.5613      5.4609      5.3636      5.2758      5.2019      5.1447    
  5.1054      5.0844      5.0810      5.0937      5.1198      5.1550      5.1942      5.2311      5.2599      5.2757    
  5.2757      5.2599      5.2311      5.1942      5.1550      5.1198      5.0937      5.0810      5.0844      5.1054    
  5.3941      5.5848      5.7955      6.0195      6.2464      6.4632      6.6544      6.8047      6.9010      6.9341    