   1   1   1   0
  0.1743282E+02  0.2910455E-09  0.2910455E-09  0.2910455E-09  0.5000000E-15
  1.000000000000000E-004
  CAR 
 Pt-fcc                                  
     63.02575982    -48.02216628  301      9.41266029      1.00000000
    -48.022  0.0000E+00  0.0000E+00
    -47.652  0.0000E+00  0.0000E+00
    -47.282  0.0000E+00  0.0000E+00
    -46.912  0.0000E+00  0.0000E+00
    -46.542  0.0000E+00  0.0000E+00
    -46.171  0.0000E+00  0.0000E+00
    -45.801  0.0000E+00  0.0000E+00
    -45.431  0.0000E+00  0.0000E+00
    -45.061  0.0000E+00  0.0000E+00
    -44.691  0.0000E+00  0.0000E+00
    -44.321  0.0000E+00  0.0000E+00
    -43.950  0.0000E+00  0.0000E+00
    -43.580  0.0000E+00  0.0000E+00
    -43.210  0.9975E-14  0.3692E-14
    -42.840  0.6296E-01  0.2330E-01
    -42.470  0.9757E-01  0.6000E-01
    -42.100  0.0000E+00  0.6000E-01
    -41.729  0.0000E+00  0.6000E-01
    -41.359  0.0000E+00  0.6000E-01
    -40.989  0.0000E+00  0.6000E-01
    -40.619  0.0000E+00  0.6000E-01
    -40.249  0.0000E+00  0.6000E-01
    -39.879  0.0000E+00  0.6000E-01
    -39.508  0.0000E+00  0.6000E-01
    -39.138  0.0000E+00  0.6000E-01
    -38.768  0.0000E+00  0.6000E-01
    -38.398  0.0000E+00  0.6000E-01
    -38.028  0.0000E+00  0.6000E-01
    -37.658  0.0000E+00  0.6000E-01
    -37.288  0.0000E+00  0.6000E-01
    -36.917  0.0000E+00  0.6000E-01
    -36.547  0.0000E+00  0.6000E-01
    -36.177  0.0000E+00  0.6000E-01
    -35.807  0.0000E+00  0.6000E-01
    -35.437  0.0000E+00  0.6000E-01
    -35.067  0.0000E+00  0.6000E-01
    -34.696  0.0000E+00  0.6000E-01
    -34.326  0.0000E+00  0.6000E-01
    -33.956  0.0000E+00  0.6000E-01
    -33.586  0.0000E+00  0.6000E-01
    -33.216  0.0000E+00  0.6000E-01
    -32.846  0.0000E+00  0.6000E-01
    -32.475  0.0000E+00  0.6000E-01
    -32.105  0.0000E+00  0.6000E-01
    -31.735  0.0000E+00  0.6000E-01
    -31.365  0.0000E+00  0.6000E-01
    -30.995  0.0000E+00  0.6000E-01
    -30.625  0.0000E+00  0.6000E-01
    -30.254  0.0000E+00  0.6000E-01
    -29.884  0.0000E+00  0.6000E-01
    -29.514  0.0000E+00  0.6000E-01
    -29.144  0.0000E+00  0.6000E-01
    -28.774  0.0000E+00  0.6000E-01
    -28.404  0.0000E+00  0.6000E-01
    -28.034  0.0000E+00  0.6000E-01
    -27.663  0.0000E+00  0.6000E-01
    -27.293  0.0000E+00  0.6000E-01
    -26.923  0.0000E+00  0.6000E-01
    -26.553  0.0000E+00  0.6000E-01
    -26.183  0.0000E+00  0.6000E-01
    -25.813  0.0000E+00  0.6000E-01
    -25.442  0.0000E+00  0.6000E-01
    -25.072  0.0000E+00  0.6000E-01
    -24.702  0.0000E+00  0.6000E-01
    -24.332  0.0000E+00  0.6000E-01
    -23.962  0.0000E+00  0.6000E-01
    -23.592  0.0000E+00  0.6000E-01
    -23.221  0.0000E+00  0.6000E-01
    -22.851  0.0000E+00  0.6000E-01
    -22.481  0.0000E+00  0.6000E-01
    -22.111  0.0000E+00  0.6000E-01
    -21.741  0.0000E+00  0.6000E-01
    -21.371  0.0000E+00  0.6000E-01
    -21.001  0.0000E+00  0.6000E-01
    -20.630  0.0000E+00  0.6000E-01
    -20.260  0.0000E+00  0.6000E-01
    -19.890  0.0000E+00  0.6000E-01
    -19.520  0.0000E+00  0.6000E-01
    -19.150  0.0000E+00  0.6000E-01
    -18.780  0.0000E+00  0.6000E-01
    -18.409  0.0000E+00  0.6000E-01
    -18.039  0.0000E+00  0.6000E-01
    -17.669  0.0000E+00  0.6000E-01
    -17.299  0.0000E+00  0.6000E-01
    -16.929  0.0000E+00  0.6000E-01
    -16.559  0.0000E+00  0.6000E-01
    -16.188  0.0000E+00  0.6000E-01
    -15.818  0.0000E+00  0.6000E-01
    -15.448  0.0000E+00  0.6000E-01
    -15.078  0.0000E+00  0.6000E-01
    -14.708  0.0000E+00  0.6000E-01
    -14.338  0.0000E+00  0.6000E-01
    -13.967  0.0000E+00  0.6000E-01
    -13.597  0.0000E+00  0.6000E-01
    -13.227  0.0000E+00  0.6000E-01
    -12.857  0.0000E+00  0.6000E-01
    -12.487  0.0000E+00  0.6000E-01
    -12.117  0.0000E+00  0.6000E-01
    -11.747  0.0000E+00  0.6000E-01
    -11.376  0.0000E+00  0.6000E-01
    -11.006  0.0000E+00  0.6000E-01
    -10.636  0.0000E+00  0.6000E-01
    -10.266  0.0000E+00  0.6000E-01
     -9.896  0.0000E+00  0.6000E-01
     -9.526  0.0000E+00  0.6000E-01
     -9.155  0.0000E+00  0.6000E-01
     -8.785  0.0000E+00  0.6000E-01
     -8.415  0.0000E+00  0.6000E-01
     -8.045  0.0000E+00  0.6000E-01
     -7.675  0.0000E+00  0.6000E-01
     -7.305  0.0000E+00  0.6000E-01
     -6.934  0.0000E+00  0.6000E-01
     -6.564  0.0000E+00  0.6000E-01
     -6.194  0.0000E+00  0.6000E-01
     -5.824  0.0000E+00  0.6000E-01
     -5.454  0.0000E+00  0.6000E-01
     -5.084  0.0000E+00  0.6000E-01
     -4.713  0.0000E+00  0.6000E-01
     -4.343  0.0000E+00  0.6000E-01
     -3.973  0.0000E+00  0.6000E-01
     -3.603  0.0000E+00  0.6000E-01
     -3.233  0.0000E+00  0.6000E-01
     -2.863  0.0000E+00  0.6000E-01
     -2.493  0.0000E+00  0.6000E-01
     -2.122  0.0000E+00  0.6000E-01
     -1.752  0.0000E+00  0.6000E-01
     -1.382  0.0000E+00  0.6000E-01
     -1.012  0.0000E+00  0.6000E-01
     -0.642  0.0000E+00  0.6000E-01
     -0.272  0.0000E+00  0.6000E-01
      0.099  0.0000E+00  0.6000E-01
      0.469  0.0000E+00  0.6000E-01
      0.839  0.1056E-03  0.6004E-01
      1.209  0.4290E-03  0.6020E-01
      1.579  0.6580E-03  0.6044E-01
      1.949  0.9651E-03  0.6080E-01
      2.320  0.1544E-02  0.6137E-01
      2.690  0.1084E-02  0.6180E-01
      3.060  0.1873E-02  0.6251E-01
      3.430  0.3137E-02  0.6369E-01
      3.800  0.5897E-02  0.6589E-01
      4.170  0.1031E-01  0.6973E-01
      4.541  0.1500E-01  0.7533E-01
      4.911  0.1548E-01  0.8107E-01
      5.281  0.1218E-01  0.8560E-01
      5.651  0.1435E-01  0.9097E-01
      6.021  0.1757E-01  0.9747E-01
      6.391  0.2036E-01  0.1050E+00
      6.761  0.2704E-01  0.1151E+00
      7.132  0.1875E-01  0.1221E+00
      7.502  0.1403E-01  0.1273E+00
      7.872  0.1683E-01  0.1336E+00
      8.242  0.1687E-01  0.1400E+00
      8.612  0.1315E-01  0.1450E+00
      8.982  0.1558E-01  0.1507E+00
      9.353  0.2137E-01  0.1587E+00
      9.723  0.1890E-01  0.1658E+00
     10.093  0.1724E-02  0.1665E+00
     10.463  0.5102E-02  0.1684E+00
     10.833  0.2065E-02  0.1691E+00
     11.203  0.3046E-02  0.1703E+00
     11.574  0.2943E-02  0.1714E+00
     11.944  0.3707E-02  0.1728E+00
     12.314  0.1803E-02  0.1735E+00
     12.684  0.3611E-02  0.1748E+00
     13.054  0.2773E-02  0.1758E+00
     13.424  0.2747E-02  0.1769E+00
     13.795  0.2269E-02  0.1777E+00
     14.165  0.2185E-02  0.1785E+00
     14.535  0.5009E-02  0.1804E+00
     14.905  0.2843E-02  0.1814E+00
     15.275  0.3541E-02  0.1828E+00
     15.645  0.2418E-02  0.1837E+00
     16.015  0.3660E-02  0.1851E+00
     16.386  0.3014E-02  0.1862E+00
     16.756  0.3718E-02  0.1876E+00
     17.126  0.4032E-02  0.1891E+00
     17.496  0.4339E-02  0.1907E+00
     17.866  0.7574E-03  0.1910E+00
     18.236  0.2952E-02  0.1921E+00
     18.607  0.4627E-02  0.1938E+00
     18.977  0.4951E-02  0.1957E+00
     19.347  0.1090E-02  0.1961E+00
     19.717  0.4451E-02  0.1977E+00
     20.087  0.4015E-02  0.1992E+00
     20.457  0.4186E-02  0.2008E+00
     20.828  0.6189E-02  0.2031E+00
     21.198  0.3926E-02  0.2046E+00
     21.568  0.5072E-02  0.2065E+00
     21.938  0.4925E-02  0.2083E+00
     22.308  0.6821E-02  0.2109E+00
     22.678  0.3544E-02  0.2122E+00
     23.049  0.5475E-02  0.2143E+00
     23.419  0.3733E-02  0.2157E+00
     23.789  0.6588E-02  0.2181E+00
     24.159  0.7828E-02  0.2210E+00
     24.529  0.6977E-02  0.2236E+00
     24.899  0.6052E-02  0.2259E+00
     25.269  0.5334E-02  0.2279E+00
     25.640  0.8747E-02  0.2312E+00
     26.010  0.5536E-02  0.2332E+00
     26.380  0.4359E-02  0.2348E+00
     26.750  0.3265E-02  0.2360E+00
     27.120  0.6767E-02  0.2385E+00
     27.490  0.6643E-02  0.2411E+00
     27.861  0.6756E-02  0.2436E+00
     28.231  0.9967E-02  0.2472E+00
     28.601  0.6911E-02  0.2498E+00
     28.971  0.7573E-02  0.2527E+00
     29.341  0.5930E-02  0.2549E+00
     29.711  0.6198E-02  0.2572E+00
     30.082  0.5183E-02  0.2591E+00
     30.452  0.3059E-02  0.2603E+00
     30.822  0.4025E-02  0.2618E+00
     31.192  0.5140E-02  0.2637E+00
     31.562  0.3999E-02  0.2652E+00
     31.932  0.3712E-02  0.2665E+00
     32.303  0.4656E-02  0.2683E+00
     32.673  0.8168E-02  0.2713E+00
     33.043  0.3444E-02  0.2726E+00
     33.413  0.5202E-02  0.2746E+00
     33.783  0.5485E-02  0.2766E+00
     34.153  0.5652E-02  0.2788E+00
     34.523  0.7302E-02  0.2815E+00
     34.894  0.9425E-02  0.2850E+00
     35.264  0.8925E-02  0.2883E+00
     35.634  0.1186E-01  0.2928E+00
     36.004  0.1522E-01  0.2984E+00
     36.374  0.9054E-02  0.3018E+00
     36.744  0.9270E-02  0.3053E+00
     37.115  0.9221E-02  0.3087E+00
     37.485  0.5036E-02  0.3106E+00
     37.855  0.8547E-02  0.3137E+00
     38.225  0.9772E-02  0.3173E+00
     38.595  0.1147E-01  0.3216E+00
     38.965  0.6999E-02  0.3242E+00
     39.336  0.5688E-02  0.3264E+00
     39.706  0.7281E-02  0.3291E+00
     40.076  0.5114E-02  0.3311E+00
     40.446  0.8879E-02  0.3344E+00
     40.816  0.6078E-02  0.3366E+00
     41.186  0.5186E-02  0.3386E+00
     41.556  0.6841E-02  0.3411E+00
     41.927  0.8413E-02  0.3442E+00
     42.297  0.7186E-02  0.3470E+00
     42.667  0.1107E-01  0.3511E+00
     43.037  0.1094E-01  0.3552E+00
     43.407  0.1285E-01  0.3600E+00
     43.777  0.1022E-01  0.3638E+00
     44.148  0.1148E-01  0.3681E+00
     44.518  0.1255E-01  0.3728E+00
     44.888  0.9165E-02  0.3763E+00
     45.258  0.8532E-02  0.3795E+00
     45.628  0.4919E-02  0.3813E+00
     45.998  0.9866E-02  0.3850E+00
     46.369  0.8604E-02  0.3882E+00
     46.739  0.7228E-02  0.3909E+00
     47.109  0.7809E-02  0.3938E+00
     47.479  0.1160E-01  0.3981E+00
     47.849  0.7010E-02  0.4007E+00
     48.219  0.7801E-02  0.4036E+00
     48.590  0.9173E-02  0.4071E+00
     48.960  0.1142E-01  0.4114E+00
     49.330  0.1103E-01  0.4155E+00
     49.700  0.4522E-02  0.4172E+00
     50.070  0.1015E-01  0.4210E+00
     50.440  0.8291E-02  0.4242E+00
     50.810  0.6485E-01  0.4482E+00
     51.181  0.8261E-02  0.4513E+00
     51.551  0.9170E-02  0.4548E+00
     51.921  0.7272E-02  0.4575E+00
     52.291  0.7468E-02  0.4603E+00
     52.661  0.7730E-02  0.4632E+00
     53.031  0.8972E-02  0.4666E+00
     53.402  0.7059E-02  0.4693E+00
     53.772  0.8835E-02  0.4726E+00
     54.142  0.4377E-02  0.4743E+00
     54.512  0.3732E-02  0.4757E+00
     54.882  0.2378E-02  0.4766E+00
     55.252  0.2692E-02  0.4776E+00
     55.623  0.2129E-02  0.4784E+00
     55.993  0.2073E-02  0.4792E+00
     56.363  0.1287E-02  0.4796E+00
     56.733  0.0000E+00  0.4796E+00
     57.103  0.4386E-04  0.4797E+00
     57.473  0.6045E-03  0.4799E+00
     57.844  0.2279E-07  0.4799E+00
     58.214  0.3242E-03  0.4800E+00
     58.584  0.0000E+00  0.4800E+00
     58.954  0.0000E+00  0.4800E+00
     59.324  0.0000E+00  0.4800E+00
     59.694  0.0000E+00  0.4800E+00
     60.064  0.0000E+00  0.4800E+00
     60.435  0.0000E+00  0.4800E+00
     60.805  0.0000E+00  0.4800E+00
     61.175  0.0000E+00  0.4800E+00
     61.545  0.0000E+00  0.4800E+00
     61.915  0.0000E+00  0.4800E+00
     62.285  0.0000E+00  0.4800E+00
     62.656  0.0000E+00  0.4800E+00
     63.026  0.0000E+00  0.4800E+00
     63.02575982    -48.02216628  301      9.41266029      1.00000000
    -48.022  0.0000E+00  0.0000E+00  0.0000E+00  0.0000E+00  0.0000E+00  0.0000E+00  0.0000E+00  0.0000E+00  0.0000E+00
    -47.652  0.0000E+00  0.0000E+00  0.0000E+00  0.0000E+00  0.0000E+00  0.0000E+00  0.0000E+00  0.0000E+00  0.0000E+00
    -47.282  0.0000E+00  0.0000E+00  0.0000E+00  0.0000E+00  0.0000E+00  0.0000E+00  0.0000E+00  0.0000E+00  0.0000E+00
    -46.912  0.0000E+00  0.0000E+00  0.0000E+00  0.0000E+00  0.0000E+00  0.0000E+00  0.0000E+00  0.0000E+00  0.0000E+00
    -46.542  0.0000E+00  0.0000E+00  0.0000E+00  0.0000E+00  0.0000E+00  0.0000E+00  0.0000E+00  0.0000E+00  0.0000E+00
    -46.171  0.0000E+00  0.0000E+00  0.0000E+00  0.0000E+00  0.0000E+00  0.0000E+00  0.0000E+00  0.0000E+00  0.0000E+00
    -45.801  0.0000E+00  0.0000E+00  0.0000E+00  0.0000E+00  0.0000E+00  0.0000E+00  0.0000E+00  0.0000E+00  0.0000E+00
    -45.431  0.0000E+00  0.0000E+00  0.0000E+00  0.0000E+00  0.0000E+00  0.0000E+00  0.0000E+00  0.0000E+00  0.0000E+00
    -45.061  0.0000E+00  0.0000E+00  0.0000E+00  0.0000E+00  0.0000E+00  0.0000E+00  0.0000E+00  0.0000E+00  0.0000E+00
    -44.691  0.0000E+00  0.0000E+00  0.0000E+00  0.0000E+00  0.0000E+00  0.0000E+00  0.0000E+00  0.0000E+00  0.0000E+00
    -44.321  0.0000E+00  0.0000E+00  0.0000E+00  0.0000E+00  0.0000E+00  0.0000E+00  0.0000E+00  0.0000E+00  0.0000E+00
    -43.950  0.0000E+00  0.0000E+00  0.0000E+00  0.0000E+00  0.0000E+00  0.0000E+00  0.0000E+00  0.0000E+00  0.0000E+00
    -43.580  0.0000E+00  0.0000E+00  0.0000E+00  0.0000E+00  0.0000E+00  0.0000E+00  0.0000E+00  0.0000E+00  0.0000E+00
    -43.210  0.1353E-17  0.3276E-12  0.3276E-12  0.3276E-12  0.7240E-18  0.7240E-18  0.5111E-18  0.7240E-18  0.5111E-18
    -42.840  0.6553E-04  0.2073E+01  0.2073E+01  0.2073E+01  0.2242E-04  0.2242E-04  0.9008E-05  0.2242E-04  0.9008E-05
    -42.470  0.2711E-04  0.3228E+01  0.3228E+01  0.3228E+01  0.2642E-04  0.2642E-04  0.1678E-04  0.2642E-04  0.1678E-04
    -42.100  0.0000E+00  0.0000E+00  0.0000E+00  0.0000E+00  0.0000E+00  0.0000E+00  0.0000E+00  0.0000E+00  0.0000E+00
    -41.729  0.0000E+00  0.0000E+00  0.0000E+00  0.0000E+00  0.0000E+00  0.0000E+00  0.0000E+00  0.0000E+00  0.0000E+00
    -41.359  0.0000E+00  0.0000E+00  0.0000E+00  0.0000E+00  0.0000E+00  0.0000E+00  0.0000E+00  0.0000E+00  0.0000E+00
    -40.989  0.0000E+00  0.0000E+00  0.0000E+00  0.0000E+00  0.0000E+00  0.0000E+00  0.0000E+00  0.0000E+00  0.0000E+00
    -40.619  0.0000E+00  0.0000E+00  0.0000E+00  0.0000E+00  0.0000E+00  0.0000E+00  0.0000E+00  0.0000E+00  0.0000E+00
    -40.249  0.0000E+00  0.0000E+00  0.0000E+00  0.0000E+00  0.0000E+00  0.0000E+00  0.0000E+00  0.0000E+00  0.0000E+00
    -39.879  0.0000E+00  0.0000E+00  0.0000E+00  0.0000E+00  0.0000E+00  0.0000E+00  0.0000E+00  0.0000E+00  0.0000E+00
    -39.508  0.0000E+00  0.0000E+00  0.0000E+00  0.0000E+00  0.0000E+00  0.0000E+00  0.0000E+00  0.0000E+00  0.0000E+00
    -39.138  0.0000E+00  0.0000E+00  0.0000E+00  0.0000E+00  0.0000E+00  0.0000E+00  0.0000E+00  0.0000E+00  0.0000E+00
    -38.768  0.0000E+00  0.0000E+00  0.0000E+00  0.0000E+00  0.0000E+00  0.0000E+00  0.0000E+00  0.0000E+00  0.0000E+00
    -38.398  0.0000E+00  0.0000E+00  0.0000E+00  0.0000E+00  0.0000E+00  0.0000E+00  0.0000E+00  0.0000E+00  0.0000E+00
    -38.028  0.0000E+00  0.0000E+00  0.0000E+00  0.0000E+00  0.0000E+00  0.0000E+00  0.0000E+00  0.0000E+00  0.0000E+00
    -37.658  0.0000E+00  0.0000E+00  0.0000E+00  0.0000E+00  0.0000E+00  0.0000E+00  0.0000E+00  0.0000E+00  0.0000E+00
    -37.288  0.0000E+00  0.0000E+00  0.0000E+00  0.0000E+00  0.0000E+00  0.0000E+00  0.0000E+00  0.0000E+00  0.0000E+00
    -36.917  0.0000E+00  0.0000E+00  0.0000E+00  0.0000E+00  0.0000E+00  0.0000E+00  0.0000E+00  0.0000E+00  0.0000E+00
    -36.547  0.0000E+00  0.0000E+00  0.0000E+00  0.0000E+00  0.0000E+00  0.0000E+00  0.0000E+00  0.0000E+00  0.0000E+00
    -36.177  0.0000E+00  0.0000E+00  0.0000E+00  0.0000E+00  0.0000E+00  0.0000E+00  0.0000E+00  0.0000E+00  0.0000E+00
    -35.807  0.0000E+00  0.0000E+00  0.0000E+00  0.0000E+00  0.0000E+00  0.0000E+00  0.0000E+00  0.0000E+00  0.0000E+00
    -35.437  0.0000E+00  0.0000E+00  0.0000E+00  0.0000E+00  0.0000E+00  0.0000E+00  0.0000E+00  0.0000E+00  0.0000E+00
    -35.067  0.0000E+00  0.0000E+00  0.0000E+00  0.0000E+00  0.0000E+00  0.0000E+00  0.0000E+00  0.0000E+00  0.0000E+00
    -34.696  0.0000E+00  0.0000E+00  0.0000E+00  0.0000E+00  0.0000E+00  0.0000E+00  0.0000E+00  0.0000E+00  0.0000E+00
    -34.326  0.0000E+00  0.0000E+00  0.0000E+00  0.0000E+00  0.0000E+00  0.0000E+00  0.0000E+00  0.0000E+00  0.0000E+00
    -33.956  0.0000E+00  0.0000E+00  0.0000E+00  0.0000E+00  0.0000E+00  0.0000E+00  0.0000E+00  0.0000E+00  0.0000E+00
    -33.586  0.0000E+00  0.0000E+00  0.0000E+00  0.0000E+00  0.0000E+00  0.0000E+00  0.0000E+00  0.0000E+00  0.0000E+00
    -33.216  0.0000E+00  0.0000E+00  0.0000E+00  0.0000E+00  0.0000E+00  0.0000E+00  0.0000E+00  0.0000E+00  0.0000E+00
    -32.846  0.0000E+00  0.0000E+00  0.0000E+00  0.0000E+00  0.0000E+00  0.0000E+00  0.0000E+00  0.0000E+00  0.0000E+00
    -32.475  0.0000E+00  0.0000E+00  0.0000E+00  0.0000E+00  0.0000E+00  0.0000E+00  0.0000E+00  0.0000E+00  0.0000E+00
    -32.105  0.0000E+00  0.0000E+00  0.0000E+00  0.0000E+00  0.0000E+00  0.0000E+00  0.0000E+00  0.0000E+00  0.0000E+00
    -31.735  0.0000E+00  0.0000E+00  0.0000E+00  0.0000E+00  0.0000E+00  0.0000E+00  0.0000E+00  0.0000E+00  0.0000E+00
    -31.365  0.0000E+00  0.0000E+00  0.0000E+00  0.0000E+00  0.0000E+00  0.0000E+00  0.0000E+00  0.0000E+00  0.0000E+00
    -30.995  0.0000E+00  0.0000E+00  0.0000E+00  0.0000E+00  0.0000E+00  0.0000E+00  0.0000E+00  0.0000E+00  0.0000E+00
    -30.625  0.0000E+00  0.0000E+00  0.0000E+00  0.0000E+00  0.0000E+00  0.0000E+00  0.0000E+00  0.0000E+00  0.0000E+00
    -30.254  0.0000E+00  0.0000E+00  0.0000E+00  0.0000E+00  0.0000E+00  0.0000E+00  0.0000E+00  0.0000E+00  0.0000E+00
    -29.884  0.0000E+00  0.0000E+00  0.0000E+00  0.0000E+00  0.0000E+00  0.0000E+00  0.0000E+00  0.0000E+00  0.0000E+00
    -29.514  0.0000E+00  0.0000E+00  0.0000E+00  0.0000E+00  0.0000E+00  0.0000E+00  0.0000E+00  0.0000E+00  0.0000E+00
    -29.144  0.0000E+00  0.0000E+00  0.0000E+00  0.0000E+00  0.0000E+00  0.0000E+00  0.0000E+00  0.0000E+00  0.0000E+00
    -28.774  0.0000E+00  0.0000E+00  0.0000E+00  0.0000E+00  0.0000E+00  0.0000E+00  0.0000E+00  0.0000E+00  0.0000E+00
    -28.404  0.0000E+00  0.0000E+00  0.0000E+00  0.0000E+00  0.0000E+00  0.0000E+00  0.0000E+00  0.0000E+00  0.0000E+00
    -28.034  0.0000E+00  0.0000E+00  0.0000E+00  0.0000E+00  0.0000E+00  0.0000E+00  0.0000E+00  0.0000E+00  0.0000E+00
    -27.663  0.0000E+00  0.0000E+00  0.0000E+00  0.0000E+00  0.0000E+00  0.0000E+00  0.0000E+00  0.0000E+00  0.0000E+00
    -27.293  0.0000E+00  0.0000E+00  0.0000E+00  0.0000E+00  0.0000E+00  0.0000E+00  0.0000E+00  0.0000E+00  0.0000E+00
    -26.923  0.0000E+00  0.0000E+00  0.0000E+00  0.0000E+00  0.0000E+00  0.0000E+00  0.0000E+00  0.0000E+00  0.0000E+00
    -26.553  0.0000E+00  0.0000E+00  0.0000E+00  0.0000E+00  0.0000E+00  0.0000E+00  0.0000E+00  0.0000E+00  0.0000E+00
    -26.183  0.0000E+00  0.0000E+00  0.0000E+00  0.0000E+00  0.0000E+00  0.0000E+00  0.0000E+00  0.0000E+00  0.0000E+00
    -25.813  0.0000E+00  0.0000E+00  0.0000E+00  0.0000E+00  0.0000E+00  0.0000E+00  0.0000E+00  0.0000E+00  0.0000E+00
    -25.442  0.0000E+00  0.0000E+00  0.0000E+00  0.0000E+00  0.0000E+00  0.0000E+00  0.0000E+00  0.0000E+00  0.0000E+00
    -25.072  0.0000E+00  0.0000E+00  0.0000E+00  0.0000E+00  0.0000E+00  0.0000E+00  0.0000E+00  0.0000E+00  0.0000E+00
    -24.702  0.0000E+00  0.0000E+00  0.0000E+00  0.0000E+00  0.0000E+00  0.0000E+00  0.0000E+00  0.0000E+00  0.0000E+00
    -24.332  0.0000E+00  0.0000E+00  0.0000E+00  0.0000E+00  0.0000E+00  0.0000E+00  0.0000E+00  0.0000E+00  0.0000E+00
    -23.962  0.0000E+00  0.0000E+00  0.0000E+00  0.0000E+00  0.0000E+00  0.0000E+00  0.0000E+00  0.0000E+00  0.0000E+00
    -23.592  0.0000E+00  0.0000E+00  0.0000E+00  0.0000E+00  0.0000E+00  0.0000E+00  0.0000E+00  0.0000E+00  0.0000E+00
    -23.221  0.0000E+00  0.0000E+00  0.0000E+00  0.0000E+00  0.0000E+00  0.0000E+00  0.0000E+00  0.0000E+00  0.0000E+00
    -22.851  0.0000E+00  0.0000E+00  0.0000E+00  0.0000E+00  0.0000E+00  0.0000E+00  0.0000E+00  0.0000E+00  0.0000E+00
    -22.481  0.0000E+00  0.0000E+00  0.0000E+00  0.0000E+00  0.0000E+00  0.0000E+00  0.0000E+00  0.0000E+00  0.0000E+00
    -22.111  0.0000E+00  0.0000E+00  0.0000E+00  0.0000E+00  0.0000E+00  0.0000E+00  0.0000E+00  0.0000E+00  0.0000E+00
    -21.741  0.0000E+00  0.0000E+00  0.0000E+00  0.0000E+00  0.0000E+00  0.0000E+00  0.0000E+00  0.0000E+00  0.0000E+00
    -21.371  0.0000E+00  0.0000E+00  0.0000E+00  0.0000E+00  0.0000E+00  0.0000E+00  0.0000E+00  0.0000E+00  0.0000E+00
    -21.001  0.0000E+00  0.0000E+00  0.0000E+00  0.0000E+00  0.0000E+00  0.0000E+00  0.0000E+00  0.0000E+00  0.0000E+00
    -20.630  0.0000E+00  0.0000E+00  0.0000E+00  0.0000E+00  0.0000E+00  0.0000E+00  0.0000E+00  0.0000E+00  0.0000E+00
    -20.260  0.0000E+00  0.0000E+00  0.0000E+00  0.0000E+00  0.0000E+00  0.0000E+00  0.0000E+00  0.0000E+00  0.0000E+00
    -19.890  0.0000E+00  0.0000E+00  0.0000E+00  0.0000E+00  0.0000E+00  0.0000E+00  0.0000E+00  0.0000E+00  0.0000E+00
    -19.520  0.0000E+00  0.0000E+00  0.0000E+00  0.0000E+00  0.0000E+00  0.0000E+00  0.0000E+00  0.0000E+00  0.0000E+00
    -19.150  0.0000E+00  0.0000E+00  0.0000E+00  0.0000E+00  0.0000E+00  0.0000E+00  0.0000E+00  0.0000E+00  0.0000E+00
    -18.780  0.0000E+00  0.0000E+00  0.0000E+00  0.0000E+00  0.0000E+00  0.0000E+00  0.0000E+00  0.0000E+00  0.0000E+00
    -18.409  0.0000E+00  0.0000E+00  0.0000E+00  0.0000E+00  0.0000E+00  0.0000E+00  0.0000E+00  0.0000E+00  0.0000E+00
    -18.039  0.0000E+00  0.0000E+00  0.0000E+00  0.0000E+00  0.0000E+00  0.0000E+00  0.0000E+00  0.0000E+00  0.0000E+00
    -17.669  0.0000E+00  0.0000E+00  0.0000E+00  0.0000E+00  0.0000E+00  0.0000E+00  0.0000E+00  0.0000E+00  0.0000E+00
    -17.299  0.0000E+00  0.0000E+00  0.0000E+00  0.0000E+00  0.0000E+00  0.0000E+00  0.0000E+00  0.0000E+00  0.0000E+00
    -16.929  0.0000E+00  0.0000E+00  0.0000E+00  0.0000E+00  0.0000E+00  0.0000E+00  0.0000E+00  0.0000E+00  0.0000E+00
    -16.559  0.0000E+00  0.0000E+00  0.0000E+00  0.0000E+00  0.0000E+00  0.0000E+00  0.0000E+00  0.0000E+00  0.0000E+00
    -16.188  0.0000E+00  0.0000E+00  0.0000E+00  0.0000E+00  0.0000E+00  0.0000E+00  0.0000E+00  0.0000E+00  0.0000E+00
    -15.818  0.0000E+00  0.0000E+00  0.0000E+00  0.0000E+00  0.0000E+00  0.0000E+00  0.0000E+00  0.0000E+00  0.0000E+00
    -15.448  0.0000E+00  0.0000E+00  0.0000E+00  0.0000E+00  0.0000E+00  0.0000E+00  0.0000E+00  0.0000E+00  0.0000E+00
    -15.078  0.0000E+00  0.0000E+00  0.0000E+00  0.0000E+00  0.0000E+00  0.0000E+00  0.0000E+00  0.0000E+00  0.0000E+00
    -14.708  0.0000E+00  0.0000E+00  0.0000E+00  0.0000E+00  0.0000E+00  0.0000E+00  0.0000E+00  0.0000E+00  0.0000E+00
    -14.338  0.0000E+00  0.0000E+00  0.0000E+00  0.0000E+00  0.0000E+00  0.0000E+00  0.0000E+00  0.0000E+00  0.0000E+00
    -13.967  0.0000E+00  0.0000E+00  0.0000E+00  0.0000E+00  0.0000E+00  0.0000E+00  0.0000E+00  0.0000E+00  0.0000E+00
    -13.597  0.0000E+00  0.0000E+00  0.0000E+00  0.0000E+00  0.0000E+00  0.0000E+00  0.0000E+00  0.0000E+00  0.0000E+00
    -13.227  0.0000E+00  0.0000E+00  0.0000E+00  0.0000E+00  0.0000E+00  0.0000E+00  0.0000E+00  0.0000E+00  0.0000E+00
    -12.857  0.0000E+00  0.0000E+00  0.0000E+00  0.0000E+00  0.0000E+00  0.0000E+00  0.0000E+00  0.0000E+00  0.0000E+00
    -12.487  0.0000E+00  0.0000E+00  0.0000E+00  0.0000E+00  0.0000E+00  0.0000E+00  0.0000E+00  0.0000E+00  0.0000E+00
    -12.117  0.0000E+00  0.0000E+00  0.0000E+00  0.0000E+00  0.0000E+00  0.0000E+00  0.0000E+00  0.0000E+00  0.0000E+00
    -11.747  0.0000E+00  0.0000E+00  0.0000E+00  0.0000E+00  0.0000E+00  0.0000E+00  0.0000E+00  0.0000E+00  0.0000E+00
    -11.376  0.0000E+00  0.0000E+00  0.0000E+00  0.0000E+00  0.0000E+00  0.0000E+00  0.0000E+00  0.0000E+00  0.0000E+00
    -11.006  0.0000E+00  0.0000E+00  0.0000E+00  0.0000E+00  0.0000E+00  0.0000E+00  0.0000E+00  0.0000E+00  0.0000E+00
    -10.636  0.0000E+00  0.0000E+00  0.0000E+00  0.0000E+00  0.0000E+00  0.0000E+00  0.0000E+00  0.0000E+00  0.0000E+00
    -10.266  0.0000E+00  0.0000E+00  0.0000E+00  0.0000E+00  0.0000E+00  0.0000E+00  0.0000E+00  0.0000E+00  0.0000E+00
     -9.896  0.0000E+00  0.0000E+00  0.0000E+00  0.0000E+00  0.0000E+00  0.0000E+00  0.0000E+00  0.0000E+00  0.0000E+00
     -9.526  0.0000E+00  0.0000E+00  0.0000E+00  0.0000E+00  0.0000E+00  0.0000E+00  0.0000E+00  0.0000E+00  0.0000E+00
     -9.155  0.0000E+00  0.0000E+00  0.0000E+00  0.0000E+00  0.0000E+00  0.0000E+00  0.0000E+00  0.0000E+00  0.0000E+00
     -8.785  0.0000E+00  0.0000E+00  0.0000E+00  0.0000E+00  0.0000E+00  0.0000E+00  0.0000E+00  0.0000E+00  0.0000E+00
     -8.415  0.0000E+00  0.0000E+00  0.0000E+00  0.0000E+00  0.0000E+00  0.0000E+00  0.0000E+00  0.0000E+00  0.0000E+00
     -8.045  0.0000E+00  0.0000E+00  0.0000E+00  0.0000E+00  0.0000E+00  0.0000E+00  0.0000E+00  0.0000E+00  0.0000E+00
     -7.675  0.0000E+00  0.0000E+00  0.0000E+00  0.0000E+00  0.0000E+00  0.0000E+00  0.0000E+00  0.0000E+00  0.0000E+00
     -7.305  0.0000E+00  0.0000E+00  0.0000E+00  0.0000E+00  0.0000E+00  0.0000E+00  0.0000E+00  0.0000E+00  0.0000E+00
     -6.934  0.0000E+00  0.0000E+00  0.0000E+00  0.0000E+00  0.0000E+00  0.0000E+00  0.0000E+00  0.0000E+00  0.0000E+00
     -6.564  0.0000E+00  0.0000E+00  0.0000E+00  0.0000E+00  0.0000E+00  0.0000E+00  0.0000E+00  0.0000E+00  0.0000E+00
     -6.194  0.0000E+00  0.0000E+00  0.0000E+00  0.0000E+00  0.0000E+00  0.0000E+00  0.0000E+00  0.0000E+00  0.0000E+00
     -5.824  0.0000E+00  0.0000E+00  0.0000E+00  0.0000E+00  0.0000E+00  0.0000E+00  0.0000E+00  0.0000E+00  0.0000E+00
     -5.454  0.0000E+00  0.0000E+00  0.0000E+00  0.0000E+00  0.0000E+00  0.0000E+00  0.0000E+00  0.0000E+00  0.0000E+00
     -5.084  0.0000E+00  0.0000E+00  0.0000E+00  0.0000E+00  0.0000E+00  0.0000E+00  0.0000E+00  0.0000E+00  0.0000E+00
     -4.713  0.0000E+00  0.0000E+00  0.0000E+00  0.0000E+00  0.0000E+00  0.0000E+00  0.0000E+00  0.0000E+00  0.0000E+00
     -4.343  0.0000E+00  0.0000E+00  0.0000E+00  0.0000E+00  0.0000E+00  0.0000E+00  0.0000E+00  0.0000E+00  0.0000E+00
     -3.973  0.0000E+00  0.0000E+00  0.0000E+00  0.0000E+00  0.0000E+00  0.0000E+00  0.0000E+00  0.0000E+00  0.0000E+00
     -3.603  0.0000E+00  0.0000E+00  0.0000E+00  0.0000E+00  0.0000E+00  0.0000E+00  0.0000E+00  0.0000E+00  0.0000E+00
     -3.233  0.0000E+00  0.0000E+00  0.0000E+00  0.0000E+00  0.0000E+00  0.0000E+00  0.0000E+00  0.0000E+00  0.0000E+00
     -2.863  0.0000E+00  0.0000E+00  0.0000E+00  0.0000E+00  0.0000E+00  0.0000E+00  0.0000E+00  0.0000E+00  0.0000E+00
     -2.493  0.0000E+00  0.0000E+00  0.0000E+00  0.0000E+00  0.0000E+00  0.0000E+00  0.0000E+00  0.0000E+00  0.0000E+00
     -2.122  0.0000E+00  0.0000E+00  0.0000E+00  0.0000E+00  0.0000E+00  0.0000E+00  0.0000E+00  0.0000E+00  0.0000E+00
     -1.752  0.0000E+00  0.0000E+00  0.0000E+00  0.0000E+00  0.0000E+00  0.0000E+00  0.0000E+00  0.0000E+00  0.0000E+00
     -1.382  0.0000E+00  0.0000E+00  0.0000E+00  0.0000E+00  0.0000E+00  0.0000E+00  0.0000E+00  0.0000E+00  0.0000E+00
     -1.012  0.0000E+00  0.0000E+00  0.0000E+00  0.0000E+00  0.0000E+00  0.0000E+00  0.0000E+00  0.0000E+00  0.0000E+00
     -0.642  0.0000E+00  0.0000E+00  0.0000E+00  0.0000E+00  0.0000E+00  0.0000E+00  0.0000E+00  0.0000E+00  0.0000E+00
     -0.272  0.0000E+00  0.0000E+00  0.0000E+00  0.0000E+00  0.0000E+00  0.0000E+00  0.0000E+00  0.0000E+00  0.0000E+00
      0.099  0.0000E+00  0.0000E+00  0.0000E+00  0.0000E+00  0.0000E+00  0.0000E+00  0.0000E+00  0.0000E+00  0.0000E+00
      0.469  0.0000E+00  0.0000E+00  0.0000E+00  0.0000E+00  0.0000E+00  0.0000E+00  0.0000E+00  0.0000E+00  0.0000E+00
      0.839  0.3714E-02  0.3623E-05  0.3623E-05  0.3623E-05  0.2298E-06  0.2298E-06  0.9299E-11  0.2298E-06  0.9299E-11
      1.209  0.1485E-01  0.6191E-04  0.6191E-04  0.6191E-04  0.1272E-04  0.1272E-04  0.5012E-05  0.1272E-04  0.5012E-05
      1.579  0.2230E-01  0.1743E-03  0.1743E-03  0.1743E-03  0.5546E-04  0.5546E-04  0.4382E-04  0.5546E-04  0.4382E-04
      1.949  0.3180E-01  0.3705E-03  0.3705E-03  0.3705E-03  0.3121E-03  0.3121E-03  0.7486E-04  0.3121E-03  0.7486E-04
      2.320  0.4867E-01  0.8346E-03  0.8346E-03  0.8346E-03  0.8668E-03  0.8668E-03  0.5494E-03  0.8668E-03  0.5494E-03
      2.690  0.3245E-01  0.6904E-03  0.6904E-03  0.6904E-03  0.1481E-02  0.1481E-02  0.3429E-03  0.1481E-02  0.3429E-03
      3.060  0.5226E-01  0.1299E-02  0.1299E-02  0.1299E-02  0.3526E-02  0.3526E-02  0.2336E-02  0.3526E-02  0.2336E-02
      3.430  0.7664E-01  0.2063E-02  0.2063E-02  0.2063E-02  0.1512E-01  0.1512E-01  0.2542E-02  0.1512E-01  0.2542E-02
      3.800  0.1028E+00  0.2617E-02  0.2617E-02  0.2617E-02  0.5583E-01  0.5583E-01  0.1296E-01  0.5583E-01  0.1296E-01
      4.170  0.1164E+00  0.3760E-02  0.3760E-02  0.3760E-02  0.7534E-01  0.7534E-01  0.1181E+00  0.7534E-01  0.1181E+00
      4.541  0.1022E+00  0.4429E-02  0.4429E-02  0.4429E-02  0.1856E+00  0.1856E+00  0.1382E+00  0.1856E+00  0.1382E+00
      4.911  0.6066E-01  0.4802E-02  0.4802E-02  0.4802E-02  0.2301E+00  0.2301E+00  0.1351E+00  0.2301E+00  0.1351E+00
      5.281  0.1855E-01  0.4842E-02  0.4842E-02  0.4842E-02  0.1798E+00  0.1798E+00  0.1326E+00  0.1798E+00  0.1326E+00
      5.651  0.8655E-02  0.7033E-02  0.7033E-02  0.7033E-02  0.2003E+00  0.2003E+00  0.1848E+00  0.2003E+00  0.1848E+00
      6.021  0.1306E-01  0.7016E-02  0.7016E-02  0.7016E-02  0.2637E+00  0.2637E+00  0.2247E+00  0.2637E+00  0.2247E+00
      6.391  0.2345E-01  0.9094E-02  0.9094E-02  0.9094E-02  0.3169E+00  0.3169E+00  0.2502E+00  0.3169E+00  0.2502E+00
      6.761  0.2823E-01  0.1208E-01  0.1208E-01  0.1208E-01  0.4370E+00  0.4370E+00  0.3374E+00  0.4370E+00  0.3374E+00
      7.132  0.1568E-01  0.7356E-02  0.7356E-02  0.7356E-02  0.3123E+00  0.3123E+00  0.2454E+00  0.3123E+00  0.2454E+00
      7.502  0.1487E-01  0.6891E-02  0.6891E-02  0.6891E-02  0.1817E+00  0.1817E+00  0.2558E+00  0.1817E+00  0.2558E+00
      7.872  0.9408E-02  0.5258E-02  0.5258E-02  0.5258E-02  0.1715E+00  0.1715E+00  0.4216E+00  0.1715E+00  0.4216E+00
      8.242  0.1198E-01  0.5850E-02  0.5850E-02  0.5850E-02  0.1498E+00  0.1498E+00  0.4582E+00  0.1498E+00  0.4582E+00
      8.612  0.7408E-02  0.2680E-02  0.2680E-02  0.2680E-02  0.1356E+00  0.1356E+00  0.3575E+00  0.1356E+00  0.3575E+00
      8.982  0.8409E-02  0.3271E-02  0.3271E-02  0.3271E-02  0.2276E+00  0.2276E+00  0.3337E+00  0.2276E+00  0.3337E+00
      9.353  0.7612E-02  0.2376E-02  0.2376E-02  0.2376E-02  0.3981E+00  0.3981E+00  0.3674E+00  0.3981E+00  0.3674E+00
      9.723  0.1759E-01  0.2943E-02  0.2943E-02  0.2943E-02  0.4385E+00  0.4385E+00  0.1910E+00  0.4385E+00  0.1910E+00