    2    2  100    2
  0.2137190E+02  0.2470000E-09  0.2470000E-09  0.8090000E-09  0.5000000E-15
  1.000000000000000E-004
  CAR 
 Co-hcc                                  
     18     70     16
 
  0.0000000E+00  0.0000000E+00  0.0000000E+00  0.1250000E-02
      1          1.340432        1.352158   1.000000   1.000000
      2          5.102386        6.084526   1.000000   1.000000
      3          7.607757        9.291811   1.000000   1.000000
      4          7.628638        9.323554   1.000000   1.000000
      5          7.628639        9.323555   1.000000   1.000000
      6          7.938745        9.688794   1.000000   1.000000
      7          7.938746        9.688795   1.000000   1.000000
      8          8.291072       10.107068   1.000000   0.996732
      9          8.291073       10.107069   1.000000   0.996731
     10          9.386556       10.120195   1.000000   0.990570
     11          9.386557       11.321778   1.000000   0.000000
     12         10.172069       11.321779   0.810853   0.000000
     13         16.578144       17.630265   0.000000   0.000000
     14         32.238161       31.967462   0.000000   0.000000
     15         35.339727       35.194666   0.000000   0.000000
     16         35.682711       35.466744   0.000000   0.000000
 
  0.1000000E+00 -0.2775558E-16  0.0000000E+00  0.7500000E-02
      1          1.689414        1.702671   1.000000   1.000000
      2          5.307238        6.319601   1.000000   1.000000
      3          7.342775        8.975272   1.000000   1.000000
      4          7.790334        9.256925   1.000000   1.000000
      5          7.818733        9.502092   1.000000   1.000000
      6          7.900600        9.534897   1.000000   1.000000
      7          8.043954        9.628608   1.000000   1.000000
      8          8.081471        9.846257   1.000000   1.000000
      9          8.192055        9.991016   1.000000   1.000000
     10          8.508733       10.022524   1.000000   1.000000
     11          9.427756       11.370903   1.000000   0.000000
     12         11.536001       12.486033   0.000000   0.000000
     13         16.641483       17.659441   0.000000   0.000000
     14         29.634523       29.819049   0.000000   0.000000
     15         32.175303       32.522272   0.000000   0.000000
     16         32.495526       32.548006   0.000000   0.000000
 
  0.2000000E+00 -0.5551115E-16  0.0000000E+00  0.7500000E-02
      1          2.678721        2.707376   1.000000   1.000000
      2          5.750544        6.865990   1.000000   1.000000
      3          7.034356        8.280074   1.000000   1.000000
      4          7.132074        8.551551   1.000000   1.000000
      5          7.668137        9.323339   1.000000   1.000000
      6          7.964213        9.726218   1.000000   1.000000
      7          8.173663        9.802480   1.000000   1.000000
      8          8.232666        9.994278   1.000000   1.000000
      9          8.255052       10.003486   1.000000   1.000000
     10          8.468713       10.274951   1.000000   0.021234
     11          9.505504       11.462241   1.000000   0.000000
     12         13.519979       14.355997   0.000000   0.000000
     13         16.872404       17.781958   0.000000   0.000000
     14         25.018452       25.427105   0.000000   0.000000
     15         29.405369       29.720117   0.000000   0.000000
     16         31.362206       31.507081   0.000000   0.000000
 
  0.3000000E+00 -0.2775558E-16  0.0000000E+00  0.7500000E-02
      1          4.060294        4.189329   1.000000   1.000000
      2          5.874997        7.154962   1.000000   1.000000
      3          6.379059        7.579853   1.000000   1.000000
      4          7.009835        8.302086   1.000000   1.000000
      5          7.681409        9.273390   1.000000   1.000000
      6          7.719940        9.444494   1.000000   1.000000
      7          7.945785        9.536001   1.000000   1.000000
      8          8.822060       10.651592   1.000000   0.000000
      9          8.906430       10.661656   1.000000   0.000000
     10          8.983926       10.848864   1.000000   0.000000
     11          9.566707       11.532924   1.000000   0.000000
     12         15.777054       16.500160   0.000000   0.000000
     13         17.231556       17.953107   0.000000   0.000000
     14         20.899553       21.481272   0.000000   0.000000
     15         27.157606       27.415586   0.000000   0.000000
     16         28.396253       28.625776   0.000000   0.000000
 
  0.4000000E+00 -0.2775558E-16  0.0000000E+00  0.7500000E-02
      1          5.145420        5.686873   1.000000   1.000000
      2          5.661571        6.951945   1.000000   1.000000
      3          5.925143        7.168807   1.000000   1.000000
      4          7.382036        8.307138   1.000000   1.000000
      5          7.541018        9.239151   1.000000   1.000000
      6          7.774253        9.324012   1.000000   1.000000
      7          7.928272        9.532838   1.000000   1.000000
      8          9.322608       11.239139   1.000000   0.000000
      9          9.455970       11.382710   1.000000   0.000000
     10          9.599425       11.570133   1.000000   0.000000
     11         10.081144       11.676390   0.999723   0.000000
     12         15.782631       16.525268   0.000000   0.000000
     13         18.205420       18.791937   0.000000   0.000000
     14         19.688851       20.255655   0.000000   0.000000
     15         25.013111       25.415440   0.000000   0.000000
     16         25.642063       25.832881   0.000000   0.000000
 
  0.5000000E+00 -0.1387779E-15  0.0000000E+00  0.3750000E-02
      1          5.476847        6.405513   1.000000   1.000000
      2          5.503173        6.723753   1.000000   1.000000
      3          5.774460        7.034256   1.000000   1.000000
      4          7.475955        8.421912   1.000000   1.000000
      5          7.710207        9.164660   1.000000   1.000000
      6          7.721687        9.243762   1.000000   1.000000
      7          8.037751        9.660013   1.000000   1.000000
      8          9.512039       11.456763   1.000000   0.000000
      9          9.609084       11.580999   1.000000   0.000000
     10          9.660711       11.621747   1.000000   0.000000
     11         11.532998       12.809621   0.000000   0.000000
     12         13.548073       14.564149   0.000000   0.000000
     13         19.930780       20.366764   0.000000   0.000000
     14         20.577887       20.983003   0.000000   0.000000
     15         22.974833       23.541509   0.000000   0.000000
     16         24.195495       24.783816   0.000000   0.000000
 
  0.1000000E+00  0.1000000E+00  0.0000000E+00  0.7500000E-02
      1          2.361415        2.381911   1.000000   1.000000
      2          5.649731        6.724124   1.000000   1.000000
      3          7.070789        8.532965   1.000000   1.000000
      4          7.411418        8.635954   1.000000   1.000000
      5          7.742595        9.421265   1.000000   1.000000
      6          7.923044        9.666088   1.000000   1.000000
      7          8.034589        9.775911   1.000000   1.000000
      8          8.119441        9.863056   1.000000   1.000000
      9          8.325677       10.002386   1.000000   1.000000
     10          8.405049       10.194067   1.000000   0.602125
     11          9.469488       11.419647   1.000000   0.000000
     12         12.963030       13.830931   0.000000   0.000000
     13         16.794804       17.741753   0.000000   0.000000
     14         27.185586       27.475823   0.000000   0.000000
     15         27.819712       28.200038   0.000000   0.000000
     16         34.090958       34.009625   0.000000   0.000000
 
  0.2000000E+00  0.1000000E+00  0.0000000E+00  0.1500000E-01
      1          3.577244        3.640812   1.000000   1.000000
      2          6.016793        7.223318   1.000000   1.000000
      3          6.655792        7.832470   1.000000   1.000000
      4          6.795907        8.226980   1.000000   1.000000
      5          7.655359        9.268601   1.000000   1.000000
      6          7.659675        9.342562   1.000000   1.000000
      7          8.137167        9.800658   1.000000   1.000000
      8          8.372360       10.146282   1.000000   0.946346
      9          8.684378       10.489270   1.000000   0.000000
     10          8.997556       10.809100   1.000000   0.000000
     11          9.512669       11.469788   1.000000   0.000000
     12         14.969389       15.741662   0.000000   0.000000
     13         17.181094       17.980958   0.000000   0.000000
     14         22.962178       23.435963   0.000000   0.000000
     15         25.567337       25.934875   0.000000   0.000000
     16         30.409503       30.521353   0.000000   0.000000
 
  0.3000000E+00  0.1000000E+00  0.0000000E+00  0.1500000E-01
      1          4.905058        5.192595   1.000000   1.000000
      2          5.903346        7.213287   1.000000   1.000000
      3          6.116434        7.351398   1.000000   1.000000
      4          6.938753        8.115129   1.000000   1.000000
      5          7.487802        9.131960   1.000000   1.000000
      6          7.820198        9.415191   1.000000   1.000000
      7          7.894302        9.508351   1.000000   1.000000
      8          8.910278       10.728967   1.000000   0.000000
      9          9.238693       11.120450   1.000000   0.000000
     10          9.542350       11.503815   1.000000   0.000000
     11          9.856425       11.597946   1.000000   0.000000
     12         17.224647       17.861127   0.000000   0.000000
     13         17.290589       17.949736   0.000000   0.000000
     14         19.755984       20.375388   0.000000   0.000000
     15         23.999846       24.338696   0.000000   0.000000
     16         26.812849       27.113428   0.000000   0.000000
 
  0.4000000E+00  0.1000000E+00  0.0000000E+00  0.1500000E-01
      1          5.547512        6.370725   1.000000   1.000000
      2          5.698652        6.949254   1.000000   1.000000
      3          5.844012        7.114068   1.000000   1.000000
      4          7.381873        8.214930   1.000000   1.000000
      5          7.429512        9.079985   1.000000   1.000000
      6          7.705696        9.258059   1.000000   1.000000
      7          8.031496        9.659015   1.000000   1.000000
      8          9.412782       11.319209   1.000000   0.000000
      9          9.530869       11.461987   1.000000   0.000000
     10          9.555100       11.518140   1.000000   0.000000
     11         11.319358       12.685211   0.000000   0.000000
     12         14.610017       15.497899   0.000000   0.000000
     13         19.662453       20.172078   0.000000   0.000000
     14         20.435315       20.894223   0.000000   0.000000
     15         22.993076       23.319908   0.000000   0.000000
     16         23.806798       24.293311   0.000000   0.000000
 
  0.2000000E+00  0.2000000E+00  0.0000000E+00  0.7500000E-02
      1          4.832631        5.015785   1.000000   1.000000
      2          6.239310        7.471076   1.000000   1.000000
      3          6.286583        7.551202   1.000000   1.000000
      4          6.457783        7.805494   1.000000   1.000000
      5          7.395056        9.020189   1.000000   1.000000
      6          7.782332        9.376686   1.000000   1.000000
      7          7.983168        9.616879   1.000000   1.000000
      8          8.570764       10.378210   1.000000   0.000000
      9          9.243963       11.116221   1.000000   0.000000
     10          9.487397       11.440334   1.000000   0.000000
     11          9.888202       11.632346   1.000000   0.000000
     12         16.985688       17.677017   0.000000   0.000000
     13         17.819564       18.459708   0.000000   0.000000
     14         21.091822       21.599509   0.000000   0.000000
     15         21.672972       22.150988   0.000000   0.000000
     16         28.843244       28.920838   0.000000   0.000000
 
  0.3000000E+00  0.2000000E+00  0.0000000E+00  0.1500000E-01
      1          5.796412        6.386180   1.000000   1.000000
      2          5.974444        7.264254   1.000000   1.000000
      3          6.093475        7.372271   1.000000   1.000000
      4          6.699423        7.802374   1.000000   1.000000
      5          7.306158        8.895052   1.000000   1.000000
      6          7.732018        9.311426   1.000000   1.000000
      7          8.028562        9.657550   1.000000   1.000000
      8          8.951574       10.799634   1.000000   0.000000
      9          9.464918       11.414298   1.000000   0.000000
     10          9.534726       11.458381   1.000000   0.000000
     11         11.266695       12.729800   0.000000   0.000000
     12         16.791582       17.455827   0.000000   0.000000
     13         19.355480       19.943240   0.000000   0.000000
     14         19.495955       20.022926   0.000000   0.000000
     15         20.821378       21.280367   0.000000   0.000000
     16         25.730270       26.091606   0.000000   0.000000
 
  0.4000000E+00  0.2000000E+00  0.0000000E+00  0.7500000E-02
      1          5.885254        6.963924   1.000000   1.000000
      2          5.979737        7.199862   1.000000   1.000000
      3          5.995269        7.220571   1.000000   1.000000
      4          6.996709        7.902805   1.000000   1.000000
      5          7.337285        8.939495   1.000000   1.000000
      6          7.570643        9.098616   1.000000   1.000000
      7          8.151296        9.807328   1.000000   1.000000
      8          9.289122       11.177717   1.000000   0.000000
      9          9.456388       11.404310   1.000000   0.000000
     10          9.483152       11.406121   1.000000   0.000000
     11         12.957936       13.981616   0.000000   0.000000
     12         14.345184       15.332075   0.000000   0.000000
     13         19.484934       19.957207   0.000000   0.000000
     14         21.260114       21.724169   0.000000   0.000000
     15         21.559794       21.956809   0.000000   0.000000
     16         23.495561       24.010925   0.000000   0.000000
 
  0.3000000E+00  0.3000000E+00  0.0000000E+00  0.7500000E-02
      1          5.931861        7.216394   1.000000   1.000000
      2          6.194388        7.274718   1.000000   1.000000
      3          6.350826        7.534245   1.000000   1.000000
      4          6.585037        7.583015   1.000000   1.000000
      5          7.300041        8.848164   1.000000   1.000000
      6          7.494108        9.034375   1.000000   1.000000
      7          8.241976        9.905840   1.000000   1.000000
      8          9.130112       11.007945   1.000000   0.000000
      9          9.407262       11.348203   1.000000   0.000000
     10          9.441207       11.356904   1.000000   0.000000
     11         13.364054       14.405366   0.000000   0.000000
     12         16.345153       17.046993   0.000000   0.000000
     13         16.374017       17.067343   0.000000   0.000000
     14         21.800153       22.304686   0.000000   0.000000
     15         22.036277       22.446953   0.000000   0.000000
     16         24.639412       25.083866   0.000000   0.000000
 
  0.0000000E+00  0.0000000E+00  0.1250000E+00  0.2500000E-02
      1          1.497986        1.510290   1.000000   1.000000
      2          5.071905        5.967947   1.000000   1.000000
      3          7.567622        9.239717   1.000000   1.000000
      4          7.587476        9.280130   1.000000   1.000000
      5          7.587477        9.280130   1.000000   1.000000
      6          7.896376        9.639891   1.000000   1.000000
      7          7.896377        9.639892   1.000000   1.000000
      8          8.387666        9.725519   1.000000   1.000000
      9          8.387666       10.213316   1.000000   0.387601
     10          9.378112       10.213316   1.000000   0.387592
     11          9.378113       11.314434   1.000000   0.000000
     12          9.553312       11.314435   1.000000   0.000000
     13         17.507534       18.421808   0.000000   0.000000
     14         32.178743       31.881082   0.000000   0.000000
     15         34.396919       34.401657   0.000000   0.000000
     16         35.022899       34.852229   0.000000   0.000000
 
  0.1000000E+00 -0.2775558E-16  0.1250000E+00  0.1500000E-01
      1          1.843424        1.857748   1.000000   1.000000
      2          5.288867        6.215314   1.000000   1.000000
      3          7.345701        8.978372   1.000000   1.000000
      4          7.710144        8.994889   1.000000   1.000000
      5          7.730325        9.412957   1.000000   1.000000
      6          7.732664        9.439454   1.000000   1.000000
      7          8.031292        9.651665   1.000000   1.000000
      8          8.184062        9.787031   1.000000   1.000000
      9          8.318712       10.130699   1.000000   0.979875
     10          8.479055       10.159897   1.000000   0.889775
     11          9.413391       11.356361   1.000000   0.000000
     12         10.961305       12.186933   0.000000   0.000000
     13         17.643107       18.517945   0.000000   0.000000
     14         29.734184       29.900460   0.000000   0.000000
     15         32.332859       32.477535   0.000000   0.000000
     16         32.451549       32.677429   0.000000   0.000000
 
  0.2000000E+00 -0.5551115E-16  0.1250000E+00  0.1500000E-01
      1          2.817675        2.850812   1.000000   1.000000
      2          5.766966        6.803181   1.000000   1.000000
      3          6.995436        8.140936   1.000000   1.000000
      4          7.069188        8.579602   1.000000   1.000000
      5          7.601802        9.269966   1.000000   1.000000
      6          7.925161        9.648224   1.000000   1.000000
      7          8.046948        9.673572   1.000000   1.000000
      8          8.311038       10.083437   1.000000   0.999648
      9          8.441993       10.207911   1.000000   0.447205
     10          8.450595       10.261217   1.000000   0.050458
     11          9.479215       11.433231   1.000000   0.000000
     12         12.620470       13.676343   0.000000   0.000000
     13         18.112414       18.872215   0.000000   0.000000
     14         25.154272       25.558547   0.000000   0.000000
     15         29.595579       29.913150   0.000000   0.000000
     16         30.668303       30.822954   0.000000   0.000000
 
  0.3000000E+00 -0.2775558E-16  0.1250000E+00  0.1500000E-01
      1          4.149223        4.301217   1.000000   1.000000
      2          5.909084        7.131802   1.000000   1.000000
      3          6.350860        7.539281   1.000000   1.000000
      4          6.990101        8.331735   1.000000   1.000000
      5          7.590058        9.160257   1.000000   1.000000
      6          7.763159        9.490897   1.000000   1.000000
      7          8.081000        9.604334   1.000000   1.000000
      8          8.841926       10.677955   1.000000   0.000000
      9          8.900443       10.680485   1.000000   0.000000
     10          8.939203       10.802163   1.000000   0.000000
     11          9.532592       11.493741   1.000000   0.000000
     12         14.314090       15.196475   0.000000   0.000000
     13         18.898198       19.508449   0.000000   0.000000
     14         21.077183       21.646379   0.000000   0.000000
     15         27.141595       27.481417   0.000000   0.000000
     16         27.375274       27.641334   0.000000   0.000000
 
  0.4000000E+00 -0.2775558E-16  0.1250000E+00  0.1500000E-01
      1          5.096282        5.712108   1.000000   1.000000
      2          5.658998        6.911087   1.000000   1.000000
      3          6.098942        7.284496   1.000000   1.000000
      4          6.992270        8.174733   1.000000   1.000000
      5          7.602969        9.306996   1.000000   1.000000
      6          7.919906        9.466897   1.000000   1.000000
      7          8.282250        9.617022   1.000000   1.000000
      8          9.324274       11.244480   1.000000   0.000000
      9          9.381951       11.297490   1.000000   0.000000
     10          9.583465       11.546522   1.000000   0.000000
     11          9.998970       11.599869   1.000000   0.000000
     12         15.105574       15.803570   0.000000   0.000000
     13         17.927221       18.694874   0.000000   0.000000
     14         20.675400       21.115433   0.000000   0.000000
     15         24.068287       24.582454   0.000000   0.000000
     16         25.879987       26.084072   0.000000   0.000000
 
  0.5000000E+00 -0.1387779E-15  0.1250000E+00  0.7500000E-02
      1          5.293798        6.286144   1.000000   1.000000
      2          5.508692        6.737470   1.000000   1.000000
      3          6.086201        7.281875   1.000000   1.000000
      4          7.020861        8.092048   1.000000   1.000000
      5          7.542781        9.238007   1.000000   1.000000
      6          8.039741        9.630411   1.000000   1.000000
      7          8.514728        9.724192   1.000000   1.000000
      8          9.458809       11.402789   1.000000   0.000000
      9          9.568704       11.523835   1.000000   0.000000
     10          9.656325       11.616826   1.000000   0.000000
     11         11.423537       12.634363   0.000000   0.000000
     12         13.456683       14.436332   0.000000   0.000000
     13         19.346759       19.889818   0.000000   0.000000
     14         19.704483       20.268041   0.000000   0.000000
     15         24.138384       24.569110   0.000000   0.000000
     16         25.100463       25.607817   0.000000   0.000000
 
  0.1000000E+00  0.1000000E+00  0.1250000E+00  0.1500000E-01
      1          2.506460        2.529780   1.000000   1.000000
      2          5.656305        6.647372   1.000000   1.000000
      3          7.089656        8.360179   1.000000   1.000000
      4          7.233149        8.659036   1.000000   1.000000
      5          7.729719        9.426806   1.000000   1.000000
      6          7.810629        9.467785   1.000000   1.000000
      7          8.020886        9.718092   1.000000   1.000000
      8          8.181117        9.941921   1.000000   1.000000
      9          8.424984       10.174766   1.000000   0.789524
     10          8.434052       10.226420   1.000000   0.255838
     11          9.450142       11.397767   1.000000   0.000000
     12         12.172189       13.269729   0.000000   0.000000
     13         17.951503       18.749227   0.000000   0.000000
     14         27.305690       27.588670   0.000000   0.000000
     15         27.968440       28.346600   0.000000   0.000000
     16         32.959242       32.976578   0.000000   0.000000
 
  0.2000000E+00  0.1000000E+00  0.1250000E+00  0.3000000E-01
      1          3.693913        3.768980   1.000000   1.000000
      2          6.061310        7.203873   1.000000   1.000000
      3          6.560474        7.732141   1.000000   1.000000
      4          6.834388        8.265130   1.000000   1.000000
      5          7.534559        9.173216   1.000000   1.000000
      6          7.766915        9.402815   1.000000   1.000000
      7          8.055436        9.724536   1.000000   1.000000
      8          8.420733       10.201402   1.000000   0.520494
      9          8.762541       10.570127   1.000000   0.000000
     10          8.949102       10.769957   1.000000   0.000000
     11          9.502210       11.449033   1.000000   0.000000
     12         13.757091       14.716435   0.000000   0.000000
     13         18.676431       19.338869   0.000000   0.000000
     14         23.108573       23.579599   0.000000   0.000000
     15         25.724700       26.094647   0.000000   0.000000
     16         29.296734       29.517599   0.000000   0.000000
 
  0.3000000E+00  0.1000000E+00  0.1250000E+00  0.3000000E-01
      1          4.932341        5.269369   1.000000   1.000000
      2          5.937270        7.183026   1.000000   1.000000
      3          6.150084        7.375314   1.000000   1.000000
      4          6.871060        8.141176   1.000000   1.000000
      5          7.524658        9.108012   1.000000   1.000000
      6          7.837830        9.470433   1.000000   1.000000
      7          7.987726        9.512188   1.000000   1.000000
      8          8.895434       10.721120   1.000000   0.000000
      9          9.282494       11.166601   1.000000   0.000000
     10          9.410517       11.314029   1.000000   0.000000
     11          9.893617       11.681583   1.000000   0.000000
     12         15.328079       16.074458   0.000000   0.000000
     13         18.774447       19.440841   0.000000   0.000000
     14         20.471680       20.990417   0.000000   0.000000
     15         24.143865       24.500927   0.000000   0.000000
     16         25.713668       26.106162   0.000000   0.000000
 
  0.4000000E+00  0.1000000E+00  0.1250000E+00  0.3000000E-01
      1          5.398709        6.314254   1.000000   1.000000
      2          5.694450        6.935880   1.000000   1.000000
      3          6.136383        7.313032   1.000000   1.000000
      4          6.945710        8.041450   1.000000   1.000000
      5          7.462958        9.109519   1.000000   1.000000
      6          8.057824        9.481219   1.000000   1.000000
      7          8.160421        9.683831   1.000000   1.000000
      8          9.373048       11.283260   1.000000   0.000000
      9          9.472696       11.405214   1.000000   0.000000
     10          9.559327       11.495612   1.000000   0.000000
     11         11.305564       12.636479   0.000000   0.000000
     12         14.460040       15.298669   0.000000   0.000000
     13         18.662568       19.324651   0.000000   0.000000
     14         20.779737       21.227031   0.000000   0.000000
     15         23.123765       23.496021   0.000000   0.000000
     16         24.037010       24.478968   0.000000   0.000000
 
  0.2000000E+00  0.2000000E+00  0.1250000E+00  0.1500000E-01
      1          4.896326        5.110660   1.000000   1.000000
      2          6.153666        7.384544   1.000000   1.000000
      3          6.404011        7.622334   1.000000   1.000000
      4          6.485641        7.845326   1.000000   1.000000
      5          7.437648        9.019457   1.000000   1.000000
      6          7.766738        9.369506   1.000000   1.000000
      7          7.915270        9.546420   1.000000   1.000000
      8          8.600207       10.408028   1.000000   0.000000
      9          9.301632       11.181656   1.000000   0.000000
     10          9.344510       11.252019   1.000000   0.000000
     11          9.959830       11.735361   1.000000   0.000000
     12         15.292705       16.093009   0.000000   0.000000
     13         19.694361       20.258810   0.000000   0.000000
     14         21.244072       21.752463   0.000000   0.000000
     15         21.872461       22.346248   0.000000   0.000000
     16         27.713028       27.930958   0.000000   0.000000
 
  0.3000000E+00  0.2000000E+00  0.1250000E+00  0.3000000E-01
      1          5.709755        6.412431   1.000000   1.000000
      2          6.078279        7.248079   1.000000   1.000000
      3          6.150641        7.428191   1.000000   1.000000
      4          6.663973        7.863183   1.000000   1.000000
      5          7.384503        8.921395   1.000000   1.000000
      6          7.706265        9.240459   1.000000   1.000000
      7          8.044953        9.672952   1.000000   1.000000
      8          8.959206       10.808953   1.000000   0.000000
      9          9.343258       11.268888   1.000000   0.000000
     10          9.574039       11.505670   1.000000   0.000000
     11         11.331955       12.782393   0.000000   0.000000
     12         16.320995       16.957195   0.000000   0.000000
     13         18.441733       19.132200   0.000000   0.000000
     14         20.275352       20.784929   0.000000   0.000000
     15         21.684217       22.106132   0.000000   0.000000
     16         24.755003       25.202058   0.000000   0.000000
 
  0.4000000E+00  0.2000000E+00  0.1250000E+00  0.1500000E-01
      1          5.726928        6.848424   1.000000   1.000000
      2          6.027976        7.260763   1.000000   1.000000
      3          6.257167        7.434273   1.000000   1.000000
      4          6.795574        7.819771   1.000000   1.000000
      5          7.311881        8.898761   1.000000   1.000000
      6          7.723192        9.150341   1.000000   1.000000
      7          8.181971        9.835107   1.000000   1.000000
      8          9.292743       11.182766   1.000000   0.000000
      9          9.322652       11.245637   1.000000   0.000000
     10          9.516349       11.444917   1.000000   0.000000
     11         13.053725       14.049270   0.000000   0.000000
     12         14.344491       15.306385   0.000000   0.000000
     13         19.422442       19.930577   0.000000   0.000000
     14         20.518941       21.044223   0.000000   0.000000
     15         20.784228       21.291173   0.000000   0.000000
     16         24.697018       25.123138   0.000000   0.000000
 
  0.3000000E+00  0.3000000E+00  0.1250000E+00  0.1500000E-01
      1          5.958339        7.251051   1.000000   1.000000
      2          6.214162        7.275819   1.000000   1.000000
      3          6.403132        7.598675   1.000000   1.000000
      4          6.555039        7.620904   1.000000   1.000000
      5          7.348915        8.847715   1.000000   1.000000
      6          7.441979        8.954153   1.000000   1.000000