PROCAR lm decomposed
# of k-points:   70         # of bands:   16         # of ions:    2

 k-point     1 :    0.00000000 0.00000000 0.00000000     weight = 0.00125000

band     1 # energy    1.34043221 # occ.  1.00000000
 
ion      s     py     pz     px    dxy    dyz    dz2    dxz  x2-y2    tot
    1  0.362  0.000  0.000  0.000  0.000  0.000  0.000  0.000  0.000  0.362
    2  0.362  0.000  0.000  0.000  0.000  0.000  0.000  0.000  0.000  0.362
tot    0.724  0.000  0.000  0.000  0.000  0.000  0.000  0.000  0.000  0.724
 
band     2 # energy    5.10238555 # occ.  1.00000000
 
ion      s     py     pz     px    dxy    dyz    dz2    dxz  x2-y2    tot
    1  0.080  0.000  0.000  0.000  0.000  0.000  0.367  0.000  0.000  0.447
    2  0.080  0.000  0.000  0.000  0.000  0.000  0.367  0.000  0.000  0.447
tot    0.160  0.000  0.000  0.000  0.000  0.000  0.733  0.000  0.000  0.893
 
band     3 # energy    7.60775687 # occ.  1.00000000
 
ion      s     py     pz     px    dxy    dyz    dz2    dxz  x2-y2    tot
    1  0.000  0.000  0.000  0.000  0.000  0.000  0.486  0.000  0.000  0.486
    2  0.000  0.000  0.000  0.000  0.000  0.000  0.486  0.000  0.000  0.486
tot    0.000  0.000  0.000  0.000  0.000  0.000  0.972  0.000  0.000  0.972
 
band     4 # energy    7.62863788 # occ.  1.00000000
 
ion      s     py     pz     px    dxy    dyz    dz2    dxz  x2-y2    tot
    1  0.000  0.000  0.000  0.000  0.362  0.000  0.000  0.000  0.121  0.483
    2  0.000  0.000  0.000  0.000  0.362  0.000  0.000  0.000  0.121  0.483
tot    0.000  0.000  0.000  0.001  0.723  0.000  0.000  0.000  0.241  0.966
 
band     5 # energy    7.62863902 # occ.  1.00000000
 
ion      s     py     pz     px    dxy    dyz    dz2    dxz  x2-y2    tot
    1  0.000  0.000  0.000  0.000  0.121  0.000  0.000  0.000  0.362  0.483
    2  0.000  0.000  0.000  0.000  0.121  0.000  0.000  0.000  0.362  0.483
tot    0.000  0.001  0.000  0.000  0.241  0.000  0.000  0.000  0.723  0.966
 
band     6 # energy    7.93874524 # occ.  1.00000000
 
ion      s     py     pz     px    dxy    dyz    dz2    dxz  x2-y2    tot
    1  0.000  0.000  0.000  0.001  0.365  0.000  0.000  0.000  0.122  0.487
    2  0.000  0.000  0.000  0.001  0.365  0.000  0.000  0.000  0.122  0.487
tot    0.000  0.000  0.000  0.001  0.730  0.000  0.000  0.000  0.243  0.975
 
band     7 # energy    7.93874642 # occ.  1.00000000
 
ion      s     py     pz     px    dxy    dyz    dz2    dxz  x2-y2    tot
    1  0.000  0.001  0.000  0.000  0.122  0.000  0.000  0.000  0.365  0.487
    2  0.000  0.001  0.000  0.000  0.122  0.000  0.000  0.000  0.365  0.487
tot    0.000  0.001  0.000  0.000  0.243  0.000  0.000  0.000  0.730  0.975
 
band     8 # energy    8.29107219 # occ.  1.00000000
 
ion      s     py     pz     px    dxy    dyz    dz2    dxz  x2-y2    tot
    1  0.000  0.000  0.000  0.000  0.000  0.367  0.000  0.122  0.000  0.490
    2  0.000  0.000  0.000  0.000  0.000  0.367  0.000  0.122  0.000  0.490
tot    0.000  0.000  0.000  0.000  0.000  0.735  0.000  0.245  0.000  0.980
 
band     9 # energy    8.29107260 # occ.  1.00000000
 
ion      s     py     pz     px    dxy    dyz    dz2    dxz  x2-y2    tot
    1  0.000  0.000  0.000  0.000  0.000  0.122  0.000  0.367  0.000  0.490
    2  0.000  0.000  0.000  0.000  0.000  0.122  0.000  0.367  0.000  0.490
tot    0.000  0.000  0.000  0.000  0.000  0.245  0.000  0.735  0.000  0.980
 
band    10 # energy    9.38655644 # occ.  1.00000000
 
ion      s     py     pz     px    dxy    dyz    dz2    dxz  x2-y2    tot
    1  0.000  0.000  0.000  0.000  0.000  0.369  0.000  0.123  0.000  0.492
    2  0.000  0.000  0.000  0.000  0.000  0.369  0.000  0.123  0.000  0.492
tot    0.000  0.000  0.000  0.000  0.000  0.739  0.000  0.246  0.000  0.985
 
band    11 # energy    9.38655702 # occ.  1.00000000
 
ion      s     py     pz     px    dxy    dyz    dz2    dxz  x2-y2    tot
    1  0.000  0.000  0.000  0.000  0.000  0.123  0.000  0.369  0.000  0.492
    2  0.000  0.000  0.000  0.000  0.000  0.123  0.000  0.369  0.000  0.492
tot    0.000  0.000  0.000  0.000  0.000  0.246  0.000  0.739  0.000  0.985
 
band    12 # energy   10.17206932 # occ.  0.81085258
 
ion      s     py     pz     px    dxy    dyz    dz2    dxz  x2-y2    tot
    1  0.000  0.000  0.344  0.000  0.000  0.000  0.000  0.000  0.000  0.344
    2  0.000  0.000  0.344  0.000  0.000  0.000  0.000  0.000  0.000  0.344
tot    0.000  0.000  0.689  0.000  0.000  0.000  0.000  0.000  0.000  0.689
 
band    13 # energy   16.57814387 # occ.  0.00000000
 
ion      s     py     pz     px    dxy    dyz    dz2    dxz  x2-y2    tot
    1  0.225  0.000  0.000  0.000  0.000  0.000  0.228  0.000  0.000  0.453
    2  0.225  0.000  0.000  0.000  0.000  0.000  0.228  0.000  0.000  0.453
tot    0.450  0.000  0.000  0.000  0.000  0.000  0.456  0.000  0.000  0.906
 
band    14 # energy   32.23816059 # occ.  0.00000000
 
ion      s     py     pz     px    dxy    dyz    dz2    dxz  x2-y2    tot
    1  0.007  0.000  0.000  0.000  0.000  0.000  0.033  0.000  0.000  0.039
    2  0.007  0.000  0.000  0.000  0.000  0.000  0.033  0.000  0.000  0.039
tot    0.013  0.000  0.000  0.000  0.000  0.000  0.065  0.000  0.000  0.078
 
band    15 # energy   35.33972651 # occ.  0.00000000
 
ion      s     py     pz     px    dxy    dyz    dz2    dxz  x2-y2    tot
    1  0.023  0.000  0.000  0.000  0.000  0.000  0.074  0.000  0.000  0.097
    2  0.023  0.000  0.000  0.000  0.000  0.000  0.074  0.000  0.000  0.097
tot    0.046  0.000  0.000  0.000  0.000  0.000  0.148  0.000  0.000  0.194
 
band    16 # energy   35.68271146 # occ.  0.00000000
 
ion      s     py     pz     px    dxy    dyz    dz2    dxz  x2-y2    tot
    1  0.000  0.000  0.031  0.000  0.000  0.000  0.000  0.000  0.000  0.031
    2  0.000  0.000  0.031  0.000  0.000  0.000  0.000  0.000  0.000  0.031
tot    0.000  0.000  0.061  0.000  0.000  0.000  0.000  0.000  0.000  0.061
 

 k-point     2 :    0.10000000-0.00000000 0.00000000     weight = 0.00750000

band     1 # energy    1.68941408 # occ.  1.00000000
 
ion      s     py     pz     px    dxy    dyz    dz2    dxz  x2-y2    tot
    1  0.350  0.003  0.000  0.009  0.000  0.000  0.000  0.000  0.000  0.363
    2  0.350  0.003  0.000  0.009  0.000  0.000  0.000  0.000  0.000  0.363
tot    0.701  0.006  0.000  0.018  0.000  0.000  0.000  0.000  0.000  0.725
 
band     2 # energy    5.30723770 # occ.  1.00000000
 
ion      s     py     pz     px    dxy    dyz    dz2    dxz  x2-y2    tot
    1  0.069  0.002  0.000  0.005  0.003  0.000  0.367  0.000  0.001  0.448
    2  0.069  0.002  0.000  0.005  0.003  0.000  0.367  0.000  0.001  0.448
tot    0.139  0.004  0.000  0.011  0.007  0.000  0.735  0.000  0.002  0.896
 
band     3 # energy    7.34277547 # occ.  1.00000000
 
ion      s     py     pz     px    dxy    dyz    dz2    dxz  x2-y2    tot
    1  0.000  0.000  0.000  0.001  0.244  0.000  0.153  0.000  0.081  0.480
    2  0.000  0.000  0.000  0.001  0.244  0.000  0.153  0.000  0.081  0.480
tot    0.000  0.001  0.000  0.002  0.487  0.000  0.306  0.000  0.162  0.959
 
band     4 # energy    7.79033408 # occ.  1.00000000
 
ion      s     py     pz     px    dxy    dyz    dz2    dxz  x2-y2    tot
    1  0.000  0.001  0.000  0.000  0.120  0.000  0.000  0.000  0.361  0.483
    2  0.000  0.001  0.000  0.000  0.120  0.000  0.000  0.000  0.361  0.483
tot    0.000  0.002  0.000  0.001  0.241  0.000  0.000  0.000  0.723  0.966
 
band     5 # energy    7.81873343 # occ.  1.00000000
 
ion      s     py     pz     px    dxy    dyz    dz2    dxz  x2-y2    tot
    1  0.001  0.000  0.000  0.001  0.232  0.000  0.174  0.000  0.077  0.486
    2  0.001  0.000  0.000  0.001  0.232  0.000  0.174  0.000  0.077  0.486
tot    0.001  0.000  0.000  0.001  0.465  0.000  0.348  0.000  0.155  0.971
 
band     6 # energy    7.90060008 # occ.  1.00000000
 
ion      s     py     pz     px    dxy    dyz    dz2    dxz  x2-y2    tot
    1  0.001  0.000  0.000  0.000  0.242  0.000  0.161  0.000  0.081  0.486
    2  0.001  0.000  0.000  0.000  0.242  0.000  0.161  0.000  0.081  0.486
tot    0.002  0.000  0.000  0.001  0.484  0.000  0.323  0.000  0.161  0.971
 
band     7 # energy    8.04395449 # occ.  1.00000000
 
ion      s     py     pz     px    dxy    dyz    dz2    dxz  x2-y2    tot
    1  0.000  0.000  0.026  0.000  0.000  0.112  0.000  0.336  0.000  0.473
    2  0.000  0.000  0.026  0.000  0.000  0.112  0.000  0.336  0.000  0.473
tot    0.000  0.000  0.051  0.000  0.000  0.224  0.000  0.672  0.000  0.947
 
band     8 # energy    8.08147124 # occ.  1.00000000
 
ion      s     py     pz     px    dxy    dyz    dz2    dxz  x2-y2    tot
    1  0.000  0.001  0.000  0.000  0.122  0.000  0.000  0.000  0.365  0.488
    2  0.000  0.001  0.000  0.000  0.122  0.000  0.000  0.000  0.365  0.488
tot    0.000  0.002  0.000  0.001  0.243  0.000  0.000  0.000  0.729  0.975
 
band     9 # energy    8.19205520 # occ.  1.00000000
 
ion      s     py     pz     px    dxy    dyz    dz2    dxz  x2-y2    tot
    1  0.000  0.000  0.000  0.000  0.000  0.366  0.000  0.122  0.000  0.488
    2  0.000  0.000  0.000  0.000  0.000  0.366  0.000  0.122  0.000  0.488
tot    0.000  0.000  0.000  0.000  0.000  0.733  0.000  0.244  0.000  0.977
 
band    10 # energy    8.50873346 # occ.  1.00000000
 
ion      s     py     pz     px    dxy    dyz    dz2    dxz  x2-y2    tot
    1  0.000  0.000  0.074  0.000  0.000  0.095  0.000  0.286  0.000  0.456
    2  0.000  0.000  0.074  0.000  0.000  0.095  0.000  0.286  0.000  0.456
tot    0.000  0.000  0.149  0.000  0.000  0.191  0.000  0.572  0.000  0.911
 
band    11 # energy    9.42775557 # occ.  1.00000000
 
ion      s     py     pz     px    dxy    dyz    dz2    dxz  x2-y2    tot
    1  0.000  0.000  0.000  0.000  0.000  0.370  0.000  0.123  0.000  0.493
    2  0.000  0.000  0.000  0.000  0.000  0.370  0.000  0.123  0.000  0.493
tot    0.000  0.000  0.000  0.000  0.000  0.740  0.000  0.247  0.000  0.987
 
band    12 # energy   11.53600122 # occ.  0.00000000
 
ion      s     py     pz     px    dxy    dyz    dz2    dxz  x2-y2    tot
    1  0.000  0.000  0.240  0.000  0.000  0.040  0.000  0.119  0.000  0.398
    2  0.000  0.000  0.240  0.000  0.000  0.040  0.000  0.119  0.000  0.398
tot    0.000  0.000  0.479  0.000  0.000  0.079  0.000  0.237  0.000  0.796
 
band    13 # energy   16.64148298 # occ.  0.00000000
 
ion      s     py     pz     px    dxy    dyz    dz2    dxz  x2-y2    tot
    1  0.219  0.003  0.000  0.008  0.000  0.000  0.219  0.000  0.000  0.449
    2  0.219  0.003  0.000  0.008  0.000  0.000  0.219  0.000  0.000  0.449
tot    0.439  0.005  0.000  0.016  0.000  0.000  0.438  0.000  0.000  0.899
 
band    14 # energy   29.63452332 # occ.  0.00000000
 
ion      s     py     pz     px    dxy    dyz    dz2    dxz  x2-y2    tot
    1  0.019  0.029  0.000  0.087  0.118  0.000  0.023  0.000  0.039  0.314
    2  0.019  0.029  0.000  0.087  0.118  0.000  0.023  0.000  0.039  0.314
tot    0.037  0.058  0.000  0.173  0.235  0.000  0.046  0.000  0.078  0.628
 
band    15 # energy   32.17530311 # occ.  0.00000000
 
ion      s     py     pz     px    dxy    dyz    dz2    dxz  x2-y2    tot
    1  0.000  0.177  0.000  0.059  0.040  0.000  0.000  0.000  0.120  0.397
    2  0.000  0.177  0.000  0.059  0.040  0.000  0.000  0.000  0.120  0.397
tot    0.000  0.355  0.000  0.118  0.080  0.000  0.000  0.000  0.240  0.794
 
band    16 # energy   32.49552615 # occ.  0.00000000
 
ion      s     py     pz     px    dxy    dyz    dz2    dxz  x2-y2    tot
    1  0.023  0.016  0.000  0.049  0.074  0.000  0.043  0.000  0.025  0.230
    2  0.023  0.016  0.000  0.049  0.074  0.000  0.043  0.000  0.025  0.230
tot    0.046  0.032  0.000  0.097  0.149  0.000  0.086  0.000  0.050  0.460
 

 k-point     3 :    0.20000000-0.00000000 0.00000000     weight = 0.00750000

band     1 # energy    2.67872102 # occ.  1.00000000
 
ion      s     py     pz     px    dxy    dyz    dz2    dxz  x2-y2    tot
    1  0.314  0.011  0.000  0.032  0.005  0.000  0.002  0.000  0.002  0.365
    2  0.314  0.011  0.000  0.032  0.005  0.000  0.002  0.000  0.002  0.365
tot    0.628  0.021  0.000  0.064  0.010  0.000  0.004  0.000  0.003  0.730
 
band     2 # energy    5.75054359 # occ.  1.00000000
 
ion      s     py     pz     px    dxy    dyz    dz2    dxz  x2-y2    tot
    1  0.041  0.005  0.000  0.014  0.042  0.000  0.339  0.000  0.014  0.454
    2  0.041  0.005  0.000  0.014  0.042  0.000  0.339  0.000  0.014  0.454
tot    0.082  0.009  0.000  0.027  0.083  0.000  0.679  0.000  0.028  0.908
 
band     3 # energy    7.03435620 # occ.  1.00000000
 
ion      s     py     pz     px    dxy    dyz    dz2    dxz  x2-y2    tot
    1  0.001  0.003  0.000  0.008  0.258  0.000  0.114  0.000  0.086  0.471
    2  0.001  0.003  0.000  0.008  0.258  0.000  0.114  0.000  0.086  0.471
tot    0.001  0.006  0.000  0.017  0.517  0.000  0.229  0.000  0.172  0.941
 
band     4 # energy    7.13207385 # occ.  1.00000000
 
ion      s     py     pz     px    dxy    dyz    dz2    dxz  x2-y2    tot
    1  0.000  0.000  0.059  0.000  0.000  0.097  0.000  0.291  0.000  0.447
    2  0.000  0.000  0.059  0.000  0.000  0.097  0.000  0.291  0.000  0.447
tot    0.000  0.000  0.118  0.000  0.000  0.194  0.000  0.583  0.000  0.895
 
band     5 # energy    7.66813675 # occ.  1.00000000
 
ion      s     py     pz     px    dxy    dyz    dz2    dxz  x2-y2    tot
    1  0.007  0.001  0.000  0.002  0.299  0.000  0.074  0.000  0.100  0.481
    2  0.007  0.001  0.000  0.002  0.299  0.000  0.074  0.000  0.100  0.481
tot    0.013  0.001  0.000  0.004  0.597  0.000  0.147  0.000  0.199  0.962
 
band     6 # energy    7.96421266 # occ.  1.00000000
 
ion      s     py     pz     px    dxy    dyz    dz2    dxz  x2-y2    tot
    1  0.000  0.000  0.000  0.000  0.000  0.365  0.000  0.122  0.000  0.486
    2  0.000  0.000  0.000  0.000  0.000  0.365  0.000  0.122  0.000  0.486
tot    0.000  0.000  0.000  0.000  0.000  0.729  0.000  0.243  0.000  0.972
 
band     7 # energy    8.17366307 # occ.  1.00000000
 
ion      s     py     pz     px    dxy    dyz    dz2    dxz  x2-y2    tot
    1  0.000  0.000  0.030  0.000  0.000  0.111  0.000  0.334  0.000  0.475
    2  0.000  0.000  0.030  0.000  0.000  0.111  0.000  0.334  0.000  0.475
tot    0.000  0.000  0.059  0.000  0.000  0.223  0.000  0.668  0.000  0.950
 
band     8 # energy    8.23266596 # occ.  1.00000000
 
ion      s     py     pz     px    dxy    dyz    dz2    dxz  x2-y2    tot
    1  0.000  0.002  0.000  0.001  0.121  0.000  0.000  0.000  0.362  0.484
    2  0.000  0.002  0.000  0.001  0.121  0.000  0.000  0.000  0.362  0.484
tot    0.000  0.003  0.000  0.001  0.241  0.000  0.000  0.000  0.723  0.969
 
band     9 # energy    8.25505177 # occ.  1.00000000
 
ion      s     py     pz     px    dxy    dyz    dz2    dxz  x2-y2    tot
    1  0.003  0.001  0.000  0.002  0.106  0.000  0.340  0.000  0.035  0.486
    2  0.003  0.001  0.000  0.002  0.106  0.000  0.340  0.000  0.035  0.486
tot    0.005  0.001  0.000  0.004  0.211  0.000  0.680  0.000  0.070  0.972
 
band    10 # energy    8.46871349 # occ.  1.00000000
 
ion      s     py     pz     px    dxy    dyz    dz2    dxz  x2-y2    tot
    1  0.000  0.002  0.000  0.001  0.122  0.000  0.000  0.000  0.365  0.489
    2  0.000  0.002  0.000  0.001  0.122  0.000  0.000  0.000  0.365  0.489
tot    0.000  0.004  0.000  0.001  0.243  0.000  0.000  0.000  0.730  0.978
 
band    11 # energy    9.50550413 # occ.  1.00000000
 
ion      s     py     pz     px    dxy    dyz    dz2    dxz  x2-y2    tot
    1  0.000  0.000  0.000  0.000  0.000  0.371  0.000  0.124  0.000  0.495
    2  0.000  0.000  0.000  0.000  0.000  0.371  0.000  0.124  0.000  0.495
tot    0.000  0.000  0.000  0.000  0.000  0.742  0.000  0.247  0.000  0.990
 
band    12 # energy   13.51997916 # occ.  0.00000000
 
ion      s     py     pz     px    dxy    dyz    dz2    dxz  x2-y2    tot
    1  0.000  0.000  0.238  0.000  0.000  0.042  0.000  0.125  0.000  0.405
    2  0.000  0.000  0.238  0.000  0.000  0.042  0.000  0.125  0.000  0.405
tot    0.000  0.000  0.477  0.000  0.000  0.083  0.000  0.250  0.000  0.810
 
band    13 # energy   16.87240423 # occ.  0.00000000
 
ion      s     py     pz     px    dxy    dyz    dz2    dxz  x2-y2    tot
    1  0.196  0.012  0.000  0.036  0.001  0.000  0.193  0.000  0.000  0.439
    2  0.196  0.012  0.000  0.036  0.001  0.000  0.193  0.000  0.000  0.439
tot    0.393  0.024  0.000  0.072  0.001  0.000  0.386  0.000  0.000  0.877
 
band    14 # energy   25.01845181 # occ.  0.00000000
 
ion      s     py     pz     px    dxy    dyz    dz2    dxz  x2-y2    tot
    1  0.060  0.038  0.000  0.113  0.113  0.000  0.022  0.000  0.038  0.382
    2  0.060  0.038  0.000  0.113  0.113  0.000  0.022  0.000  0.038  0.382
tot    0.119  0.075  0.000  0.226  0.225  0.000  0.043  0.000  0.075  0.763
 
band    15 # energy   29.40536891 # occ.  0.00000000
 
ion      s     py     pz     px    dxy    dyz    dz2    dxz  x2-y2    tot
    1  0.000  0.198  0.000  0.066  0.028  0.000  0.000  0.000  0.083  0.375
    2  0.000  0.198  0.000  0.066  0.028  0.000  0.000  0.000  0.083  0.375
tot    0.000  0.395  0.000  0.132  0.055  0.000  0.000  0.000  0.166  0.749
 
band    16 # energy   31.36220604 # occ.  0.00000000
 
ion      s     py     pz     px    dxy    dyz    dz2    dxz  x2-y2    tot
    1  0.017  0.004  0.000  0.013  0.178  0.000  0.047  0.000  0.059  0.318
    2  0.017  0.004  0.000  0.013  0.178  0.000  0.047  0.000  0.059  0.318
tot    0.033  0.009  0.000  0.026  0.357  0.000  0.094  0.000  0.119  0.637
 

 k-point     4 :    0.30000000-0.00000000 0.00000000     weight = 0.00750000

band     1 # energy    4.06029361 # occ.  1.00000000
 
ion      s     py     pz     px    dxy    dyz    dz2    dxz  x2-y2    tot
    1  0.244  0.018  0.000  0.054  0.038  0.000  0.011  0.000  0.013  0.377
    2  0.244  0.018  0.000  0.054  0.038  0.000  0.011  0.000  0.013  0.377
tot    0.488  0.036  0.000  0.107  0.076  0.000  0.023  0.000  0.025  0.754
 
band     2 # energy    5.87499731 # occ.  1.00000000
 
ion      s     py     pz     px    dxy    dyz    dz2    dxz  x2-y2    tot
    1  0.016  0.002  0.000  0.006  0.179  0.000  0.199  0.000  0.060  0.462
    2  0.016  0.002  0.000  0.006  0.179  0.000  0.199  0.000  0.060  0.462
tot    0.033  0.004  0.000  0.011  0.358  0.000  0.399  0.000  0.119  0.923
 
band     3 # energy    6.37905872 # occ.  1.00000000
 
ion      s     py     pz     px    dxy    dyz    dz2    dxz  x2-y2    tot
    1  0.000  0.000  0.040  0.000  0.000  0.101  0.000  0.304  0.000  0.446
    2  0.000  0.000  0.040  0.000  0.000  0.101  0.000  0.304  0.000  0.446
tot    0.000  0.000  0.081  0.000  0.000  0.203  0.000  0.609  0.000  0.893
 
band     4 # energy    7.00983488 # occ.  1.00000000
 
ion      s     py     pz     px    dxy    dyz    dz2    dxz  x2-y2    tot
    1  0.004  0.012  0.000  0.037  0.196  0.000  0.139  0.000  0.065  0.453
    2  0.004  0.012  0.000  0.037  0.196  0.000  0.139  0.000  0.065  0.453
tot    0.007  0.025  0.000  0.074  0.392  0.000  0.278  0.000  0.131  0.907
 
band     5 # energy    7.68140857 # occ.  1.00000000
 
ion      s     py     pz     px    dxy    dyz    dz2    dxz  x2-y2    tot
    1  0.011  0.003  0.000  0.008  0.176  0.000  0.222  0.000  0.059  0.478
    2  0.011  0.003  0.000  0.008  0.176  0.000  0.222  0.000  0.059  0.478
tot    0.022  0.005  0.000  0.016  0.352  0.000  0.445  0.000  0.117  0.956
 
band     6 # energy    7.71994003 # occ.  1.00000000
 
ion      s     py     pz     px    dxy    dyz    dz2    dxz  x2-y2    tot
    1  0.000  0.000  0.000  0.000  0.000  0.363  0.000  0.121  0.000  0.484
    2  0.000  0.000  0.000  0.000  0.000  0.363  0.000  0.121  0.000  0.484
tot    0.000  0.000  0.000  0.000  0.000  0.726  0.000  0.242  0.000  0.968
 
band     7 # energy    7.94578506 # occ.  1.00000000
 
ion      s     py     pz     px    dxy    dyz    dz2    dxz  x2-y2    tot
    1  0.000  0.000  0.027  0.000  0.000  0.112  0.000  0.336  0.000  0.475
    2  0.000  0.000  0.027  0.000  0.000  0.112  0.000  0.336  0.000  0.475
tot    0.000  0.000  0.054  0.000  0.000  0.224  0.000  0.672  0.000  0.950
 
band     8 # energy    8.82206010 # occ.  1.00000000
 
ion      s     py     pz     px    dxy    dyz    dz2    dxz  x2-y2    tot
    1  0.000  0.001  0.000  0.000  0.122  0.000  0.000  0.000  0.365  0.488
    2  0.000  0.001  0.000  0.000  0.122  0.000  0.000  0.000  0.365  0.488
tot    0.000  0.003  0.000  0.001  0.243  0.000  0.000  0.000  0.729  0.976
 
band     9 # energy    8.90643013 # occ.  1.00000000
 
ion      s     py     pz     px    dxy    dyz    dz2    dxz  x2-y2    tot
    1  0.012  0.004  0.000  0.011  0.103  0.000  0.319  0.000  0.034  0.483
    2  0.012  0.004  0.000  0.011  0.103  0.000  0.319  0.000  0.034  0.483
tot    0.023  0.007  0.000  0.022  0.207  0.000  0.638  0.000  0.069  0.966
 
band    10 # energy    8.98392641 # occ.  1.00000000
 
ion      s     py     pz     px    dxy    dyz    dz2    dxz  x2-y2    tot
    1  0.000  0.002  0.000  0.001  0.122  0.000  0.000  0.000  0.366  0.491
    2  0.000  0.002  0.000  0.001  0.122  0.000  0.000  0.000  0.366  0.491
tot    0.000  0.005  0.000  0.002  0.244  0.000  0.000  0.000  0.732  0.983
 
band    11 # energy    9.56670729 # occ.  1.00000000
 
ion      s     py     pz     px    dxy    dyz    dz2    dxz  x2-y2    tot
    1  0.000  0.000  0.000  0.000  0.000  0.372  0.000  0.124  0.000  0.496
    2  0.000  0.000  0.000  0.000  0.000  0.372  0.000  0.124  0.000  0.496
tot    0.000  0.000  0.000  0.000  0.000  0.744  0.000  0.248  0.000  0.992
 
band    12 # energy   15.77705369 # occ.  0.00000000
 
ion      s     py     pz     px    dxy    dyz    dz2    dxz  x2-y2    tot
    1  0.000  0.000  0.242  0.000  0.000  0.041  0.000  0.123  0.000  0.407
    2  0.000  0.000  0.242  0.000  0.000  0.041  0.000  0.123  0.000  0.407
tot    0.000  0.000  0.485  0.000  0.000  0.082  0.000  0.246  0.000  0.813
 
band    13 # energy   17.23155575 # occ.  0.00000000
 
ion      s     py     pz     px    dxy    dyz    dz2    dxz  x2-y2    tot
    1  0.111  0.038  0.000  0.114  0.000  0.000  0.158  0.000  0.000  0.422
    2  0.111  0.038  0.000  0.114  0.000  0.000  0.158  0.000  0.000  0.422
tot    0.221  0.076  0.000  0.229  0.000  0.000  0.316  0.000  0.000  0.843
 
band    14 # energy   20.89955261 # occ.  0.00000000
 
ion      s     py     pz     px    dxy    dyz    dz2    dxz  x2-y2    tot
    1  0.157  0.024  0.000  0.071  0.103  0.000  0.011  0.000  0.034  0.400
    2  0.157  0.024  0.000  0.071  0.103  0.000  0.011  0.000  0.034  0.400
tot    0.314  0.047  0.000  0.142  0.206  0.000  0.022  0.000  0.069  0.801
 
band    15 # energy   27.15760621 # occ.  0.00000000
 
ion      s     py     pz     px    dxy    dyz    dz2    dxz  x2-y2    tot
    1  0.000  0.218  0.000  0.073  0.015  0.000  0.000  0.000  0.044  0.350
    2  0.000  0.218  0.000  0.073  0.015  0.000  0.000  0.000  0.044  0.350
tot    0.000  0.437  0.000  0.146  0.029  0.000  0.000  0.000  0.088  0.700
 
band    16 # energy   28.39625273 # occ.  0.00000000
 
ion      s     py     pz     px    dxy    dyz    dz2    dxz  x2-y2    tot
    1  0.000  0.000  0.090  0.000  0.000  0.061  0.000  0.183  0.000  0.335
    2  0.000  0.000  0.090  0.000  0.000  0.061  0.000  0.183  0.000  0.335
tot    0.000  0.000  0.180  0.000  0.000  0.122  0.000  0.367  0.000  0.670
 

 k-point     5 :    0.40000000-0.00000000 0.00000000     weight = 0.00750000

band     1 # energy    5.14541994 # occ.  1.00000000
 
ion      s     py     pz     px    dxy    dyz    dz2    dxz  x2-y2    tot
    1  0.127  0.012  0.000  0.036  0.159  0.000  0.031  0.000  0.053  0.417
    2  0.127  0.012  0.000  0.036  0.159  0.000  0.031  0.000  0.053  0.417
tot    0.254  0.024  0.000  0.072  0.318  0.000  0.062  0.000  0.106  0.835
 
band     2 # energy    5.66157139 # occ.  1.00000000
 
ion      s     py     pz     px    dxy    dyz    dz2    dxz  x2-y2    tot
    1  0.019  0.000  0.000  0.001  0.244  0.000  0.114  0.000  0.081  0.460
    2  0.019  0.000  0.000  0.001  0.244  0.000  0.114  0.000  0.081  0.460
tot    0.038  0.001  0.000  0.003  0.488  0.000  0.228  0.000  0.163  0.920
 
band     3 # energy    5.92514256 # occ.  1.00000000
 
ion      s     py     pz     px    dxy    dyz    dz2    dxz  x2-y2    tot
    1  0.000  0.000  0.023  0.000  0.000  0.106  0.000  0.319  0.000  0.448
    2  0.000  0.000  0.023  0.000  0.000  0.106  0.000  0.319  0.000  0.448
tot    0.000  0.000  0.046  0.000  0.000  0.213  0.000  0.638  0.000  0.896
 
band     4 # energy    7.38203602 # occ.  1.00000000
 
ion      s     py     pz     px    dxy    dyz    dz2    dxz  x2-y2    tot
    1  0.025  0.027  0.000  0.082  0.093  0.000  0.167  0.000  0.031  0.425
    2  0.025  0.027  0.000  0.082  0.093  0.000  0.167  0.000  0.031  0.425
tot    0.050  0.055  0.000  0.164  0.186  0.000  0.334  0.000  0.062  0.851
 
band     5 # energy    7.54101790 # occ.  1.00000000
 
ion      s     py     pz     px    dxy    dyz    dz2    dxz  x2-y2    tot
    1  0.000  0.000  0.000  0.000  0.000  0.362  0.000  0.121  0.000  0.483
    2  0.000  0.000  0.000  0.000  0.000  0.362  0.000  0.121  0.000  0.483
tot    0.000  0.000  0.000  0.000  0.000  0.724  0.000  0.241  0.000  0.966
 
band     6 # energy    7.77425314 # occ.  1.00000000
 
ion      s     py     pz     px    dxy    dyz    dz2    dxz  x2-y2    tot
    1  0.000  0.000  0.028  0.000  0.000  0.111  0.000  0.334  0.000  0.474
    2  0.000  0.000  0.028  0.000  0.000  0.111  0.000  0.334  0.000  0.474
tot    0.000  0.000  0.057  0.000  0.000  0.223  0.000  0.668  0.000  0.948
 
band     7 # energy    7.92827231 # occ.  1.00000000
 
ion      s     py     pz     px    dxy    dyz    dz2    dxz  x2-y2    tot
    1  0.003  0.005  0.000  0.014  0.076  0.000  0.356  0.000  0.025  0.480
    2  0.003  0.005  0.000  0.014  0.076  0.000  0.356  0.000  0.025  0.480
tot    0.006  0.010  0.000  0.029  0.152  0.000  0.712  0.000  0.051  0.960
 
band     8 # energy    9.32260805 # occ.  1.00000000
 
ion      s     py     pz     px    dxy    dyz    dz2    dxz  x2-y2    tot
    1  0.000  0.000  0.000  0.000  0.123  0.000  0.000  0.000  0.370  0.493
    2  0.000  0.000  0.000  0.000  0.123  0.000  0.000  0.000  0.370  0.493
tot    0.000  0.000  0.000  0.000  0.246  0.000  0.000  0.000  0.739  0.986
 
band     9 # energy    9.45597046 # occ.  1.00000000
 
ion      s     py     pz     px    dxy    dyz    dz2    dxz  x2-y2    tot
    1  0.000  0.001  0.000  0.000  0.123  0.000  0.000  0.000  0.370  0.495
    2  0.000  0.001  0.000  0.000  0.123  0.000  0.000  0.000  0.370  0.495
tot    0.000  0.003  0.000  0.001  0.246  0.000  0.000  0.000  0.739  0.989
 
band    10 # energy    9.59942529 # occ.  1.00000000
 
ion      s     py     pz     px    dxy    dyz    dz2    dxz  x2-y2    tot
    1  0.000  0.000  0.000  0.000  0.000  0.372  0.000  0.124  0.000  0.496
    2  0.000  0.000  0.000  0.000  0.000  0.372  0.000  0.124  0.000  0.496
tot    0.000  0.000  0.000  0.000  0.000  0.744  0.000  0.248  0.000  0.992
 
band    11 # energy   10.08114370 # occ.  0.99972261
 
ion      s     py     pz     px    dxy    dyz    dz2    dxz  x2-y2    tot
    1  0.036  0.015  0.000  0.044  0.099  0.000  0.239  0.000  0.033  0.465
    2  0.036  0.015  0.000  0.044  0.099  0.000  0.239  0.000  0.033  0.465
tot    0.072  0.029  0.000  0.088  0.198  0.000  0.478  0.000  0.066  0.930
 
band    12 # energy   15.78263053 # occ.  0.00000000
 
ion      s     py     pz     px    dxy    dyz    dz2    dxz  x2-y2    tot
    1  0.031  0.056  0.000  0.167  0.046  0.000  0.102  0.000  0.015  0.418
    2  0.031  0.056  0.000  0.167  0.046  0.000  0.102  0.000  0.015  0.418
tot    0.063  0.112  0.000  0.335  0.093  0.000  0.203  0.000  0.031  0.836
 
band    13 # energy   18.20542049 # occ.  0.00000000
 
ion      s     py     pz     px    dxy    dyz    dz2    dxz  x2-y2    tot
    1  0.000  0.000  0.249  0.000  0.000  0.039  0.000  0.117  0.000  0.405
    2  0.000  0.000  0.249  0.000  0.000  0.039  0.000  0.117  0.000  0.405
tot    0.000  0.000  0.497  0.000  0.000  0.078  0.000  0.235  0.000  0.810
 
band    14 # energy   19.68885069 # occ.  0.00000000
 
ion      s     py     pz     px    dxy    dyz    dz2    dxz  x2-y2    tot
    1  0.224  0.017  0.000  0.051  0.063  0.000  0.022  0.000  0.021  0.397
    2  0.224  0.017  0.000  0.051  0.063  0.000  0.022  0.000  0.021  0.397
tot    0.448  0.034  0.000  0.102  0.126  0.000  0.043  0.000  0.042  0.795
 
band    15 # energy   25.01311055 # occ.  0.00000000
 
ion      s     py     pz     px    dxy    dyz    dz2    dxz  x2-y2    tot
    1  0.000  0.000  0.112  0.000  0.000  0.065  0.000  0.194  0.000  0.370
    2  0.000  0.000  0.112  0.000  0.000  0.065  0.000  0.194  0.000  0.370
tot    0.000  0.000  0.224  0.000  0.000  0.129  0.000  0.387  0.000  0.740
 
band    16 # energy   25.64206287 # occ.  0.00000000
 
ion      s     py     pz     px    dxy    dyz    dz2    dxz  x2-y2    tot
    1  0.000  0.235  0.000  0.078  0.004  0.000  0.000  0.000  0.013  0.330
    2  0.000  0.235  0.000  0.078  0.004  0.000  0.000  0.000  0.013  0.330
tot    0.000  0.469  0.000  0.156  0.008  0.000  0.000  0.000  0.025  0.659
 

 k-point     6 :    0.50000000-0.00000000 0.00000000     weight = 0.00375000

band     1 # energy    5.47684735 # occ.  1.00000000
 
ion      s     py     pz     px    dxy    dyz    dz2    dxz  x2-y2    tot
    1  0.009  0.000  0.000  0.001  0.262  0.000  0.095  0.000  0.087  0.455
    2  0.009  0.000  0.000  0.001  0.262  0.000  0.095  0.000  0.087  0.455
tot    0.018  0.001  0.000  0.002  0.524  0.000  0.190  0.000  0.175  0.910
 
band     2 # energy    5.50317339 # occ.  1.00000000
 
ion      s     py     pz     px    dxy    dyz    dz2    dxz  x2-y2    tot
    1  0.085  0.006  0.000  0.018  0.225  0.000  0.035  0.000  0.075  0.443
    2  0.085  0.006  0.000  0.018  0.225  0.000  0.035  0.000  0.075  0.443
tot    0.170  0.012  0.000  0.036  0.450  0.000  0.070  0.000  0.150  0.887