   2   2   1   0
  0.1099296E+02  0.2506045E-09  0.2506045E-09  0.4042370E-09  0.5000000E-15
  1.000000000000000E-004
  CAR 
 Co-hcc                                  
     50.26617147     -1.10068865  301     10.03112148      1.00000000
     -1.101  0.0000E+00  0.0000E+00  0.0000E+00  0.0000E+00
     -0.929  0.0000E+00  0.0000E+00  0.0000E+00  0.0000E+00
     -0.758  0.0000E+00  0.0000E+00  0.0000E+00  0.0000E+00
     -0.587  0.0000E+00  0.0000E+00  0.0000E+00  0.0000E+00
     -0.416  0.0000E+00  0.0000E+00  0.0000E+00  0.0000E+00
     -0.245  0.0000E+00  0.0000E+00  0.0000E+00  0.0000E+00
     -0.073  0.0000E+00  0.0000E+00  0.0000E+00  0.0000E+00
      0.098  0.0000E+00  0.0000E+00  0.0000E+00  0.0000E+00
      0.269  0.0000E+00  0.0000E+00  0.0000E+00  0.0000E+00
      0.440  0.0000E+00  0.0000E+00  0.0000E+00  0.0000E+00
      0.612  0.0000E+00  0.0000E+00  0.0000E+00  0.0000E+00
      0.783  0.0000E+00  0.0000E+00  0.0000E+00  0.0000E+00
      0.954  0.2251E-19  0.5910E-19  0.3855E-20  0.1012E-19
      1.125  0.3474E-07  0.5215E-07  0.5949E-08  0.8929E-08
      1.296  0.4838E-04  0.4903E-04  0.8290E-05  0.8404E-05
      1.468  0.2166E-03  0.2273E-03  0.4537E-04  0.4733E-04
      1.639  0.5357E-03  0.5408E-03  0.1371E-03  0.1399E-03
      1.810  0.2748E-03  0.2583E-03  0.1841E-03  0.1842E-03
      1.981  0.3450E-03  0.3440E-03  0.2432E-03  0.2431E-03
      2.153  0.1298E-02  0.1282E-02  0.4655E-03  0.4626E-03
      2.324  0.6064E-03  0.5800E-03  0.5693E-03  0.5619E-03
      2.495  0.3672E-03  0.3765E-03  0.6322E-03  0.6264E-03
      2.666  0.6246E-03  0.6513E-03  0.7392E-03  0.7379E-03
      2.837  0.1488E-02  0.1279E-02  0.9939E-03  0.9569E-03
      3.009  0.1425E-02  0.1429E-02  0.1238E-02  0.1202E-02
      3.180  0.2489E-03  0.3535E-03  0.1280E-02  0.1262E-02
      3.351  0.1748E-02  0.1072E-02  0.1580E-02  0.1446E-02
      3.522  0.1565E-02  0.2271E-02  0.1848E-02  0.1835E-02
      3.694  0.7199E-03  0.1220E-03  0.1971E-02  0.1855E-02
      3.865  0.8027E-03  0.1249E-02  0.2109E-02  0.2069E-02
      4.036  0.2889E-02  0.1372E-02  0.2603E-02  0.2304E-02
      4.207  0.1880E-02  0.2834E-02  0.2925E-02  0.2789E-02
      4.378  0.2766E-02  0.1501E-02  0.3399E-02  0.3046E-02
      4.550  0.1423E-02  0.1797E-02  0.3642E-02  0.3354E-02
      4.721  0.2892E-02  0.1105E-02  0.4137E-02  0.3543E-02
      4.892  0.2794E-02  0.1808E-02  0.4616E-02  0.3853E-02
      5.063  0.9171E-02  0.2317E-02  0.6186E-02  0.4249E-02
      5.235  0.1002E-01  0.2770E-02  0.7902E-02  0.4724E-02
      5.406  0.1037E-01  0.2979E-02  0.9678E-02  0.5234E-02
      5.577  0.1638E-01  0.3068E-02  0.1248E-01  0.5759E-02
      5.748  0.1492E-01  0.3745E-02  0.1504E-01  0.6400E-02
      5.919  0.2021E-01  0.5225E-02  0.1850E-01  0.7295E-02
      6.091  0.1494E-01  0.3608E-02  0.2106E-01  0.7913E-02
      6.262  0.1727E-01  0.1054E-01  0.2401E-01  0.9717E-02
      6.433  0.1680E-01  0.8517E-02  0.2689E-01  0.1118E-01
      6.604  0.2137E-01  0.9019E-02  0.3055E-01  0.1272E-01
      6.776  0.2266E-01  0.8965E-02  0.3443E-01  0.1425E-01
      6.947  0.1811E-01  0.1287E-01  0.3753E-01  0.1646E-01
      7.118  0.1073E-01  0.1376E-01  0.3937E-01  0.1881E-01
      7.289  0.2766E-01  0.1458E-01  0.4410E-01  0.2131E-01
      7.460  0.3031E-01  0.1191E-01  0.4929E-01  0.2335E-01
      7.632  0.2754E-01  0.1444E-01  0.5401E-01  0.2582E-01
      7.803  0.3109E-01  0.1781E-01  0.5933E-01  0.2887E-01
      7.974  0.3297E-01  0.1763E-01  0.6498E-01  0.3189E-01
      8.145  0.2519E-01  0.2241E-01  0.6929E-01  0.3573E-01
      8.317  0.1753E-01  0.9823E-02  0.7229E-01  0.3741E-01
      8.488  0.2235E-01  0.9145E-02  0.7612E-01  0.3897E-01
      8.659  0.1728E-01  0.1245E-01  0.7908E-01  0.4111E-01
      8.830  0.1584E-01  0.2331E-01  0.8179E-01  0.4510E-01
      9.001  0.2713E-01  0.2416E-01  0.8644E-01  0.4923E-01
      9.173  0.2857E-01  0.2655E-01  0.9133E-01  0.5378E-01
      9.344  0.4454E-01  0.2647E-01  0.9895E-01  0.5831E-01
      9.515  0.3125E-01  0.3083E-01  0.1043E+00  0.6359E-01
      9.686  0.1707E-02  0.2387E-01  0.1046E+00  0.6768E-01
      9.858  0.3850E-02  0.1606E-01  0.1053E+00  0.7043E-01
     10.029  0.6422E-02  0.1854E-01  0.1064E+00  0.7360E-01
     10.200  0.3173E-02  0.1113E-01  0.1069E+00  0.7551E-01
     10.371  0.2249E-02  0.1937E-01  0.1073E+00  0.7883E-01
     10.542  0.1603E-02  0.1054E-01  0.1076E+00  0.8063E-01
     10.714  0.6705E-03  0.1535E-01  0.1077E+00  0.8326E-01
     10.885  0.2111E-02  0.2412E-01  0.1080E+00  0.8739E-01
     11.056  0.4878E-02  0.2564E-01  0.1089E+00  0.9178E-01
     11.227  0.5277E-02  0.3861E-01  0.1098E+00  0.9839E-01
     11.399  0.4549E-02  0.3576E-01  0.1106E+00  0.1045E+00
     11.570  0.9326E-03  0.9715E-02  0.1107E+00  0.1062E+00
     11.741  0.2254E-02  0.4487E-02  0.1111E+00  0.1069E+00
     11.912  0.1498E-02  0.3549E-02  0.1114E+00  0.1076E+00
     12.083  0.3045E-02  0.3179E-02  0.1119E+00  0.1081E+00
     12.255  0.1145E-02  0.4241E-02  0.1121E+00  0.1088E+00
     12.426  0.3516E-02  0.3570E-02  0.1127E+00  0.1094E+00
     12.597  0.1678E-02  0.5088E-02  0.1130E+00  0.1103E+00
     12.768  0.2607E-02  0.4386E-02  0.1134E+00  0.1111E+00
     12.940  0.3464E-02  0.1808E-02  0.1140E+00  0.1114E+00
     13.111  0.6249E-03  0.3943E-02  0.1141E+00  0.1120E+00
     13.282  0.2115E-02  0.1412E-02  0.1145E+00  0.1123E+00
     13.453  0.1759E-02  0.2506E-02  0.1148E+00  0.1127E+00
     13.624  0.6193E-02  0.3220E-02  0.1158E+00  0.1133E+00
     13.796  0.1295E-02  0.2460E-02  0.1161E+00  0.1137E+00
     13.967  0.2207E-02  0.2182E-02  0.1164E+00  0.1141E+00
     14.138  0.1818E-02  0.2458E-02  0.1167E+00  0.1145E+00
     14.309  0.1900E-02  0.3876E-02  0.1171E+00  0.1151E+00
     14.481  0.5559E-03  0.3706E-02  0.1172E+00  0.1158E+00
     14.652  0.2172E-02  0.1505E-02  0.1175E+00  0.1160E+00
     14.823  0.4888E-03  0.1812E-02  0.1176E+00  0.1163E+00
     14.994  0.1606E-02  0.3132E-02  0.1179E+00  0.1169E+00
     15.165  0.5700E-03  0.1682E-02  0.1180E+00  0.1172E+00
     15.337  0.5533E-02  0.1478E-02  0.1189E+00  0.1174E+00
     15.508  0.2389E-02  0.1324E-02  0.1193E+00  0.1176E+00
     15.679  0.1238E-02  0.1399E-02  0.1196E+00  0.1179E+00
     15.850  0.6562E-03  0.6999E-03  0.1197E+00  0.1180E+00
     16.022  0.1118E-06  0.3269E-02  0.1197E+00  0.1186E+00
     16.193  0.9718E-04  0.4572E-02  0.1197E+00  0.1194E+00
     16.364  0.6286E-03  0.1248E-02  0.1198E+00  0.1196E+00
     16.535  0.1575E-02  0.6180E-03  0.1201E+00  0.1197E+00
     16.706  0.6006E-03  0.2447E-05  0.1202E+00  0.1197E+00
     16.878  0.7368E-03  0.1283E-05  0.1203E+00  0.1197E+00
     17.049  0.3427E-03  0.8949E-03  0.1204E+00  0.1198E+00
     17.220  0.1657E-02  0.8272E-03  0.1206E+00  0.1200E+00
     17.391  0.2319E-02  0.2920E-03  0.1210E+00  0.1200E+00
     17.563  0.4162E-02  0.1116E-02  0.1217E+00  0.1202E+00
     17.734  0.8246E-02  0.8137E-03  0.1232E+00  0.1203E+00
     17.905  0.2558E-02  0.1455E-02  0.1236E+00  0.1206E+00
     18.076  0.2865E-02  0.7015E-03  0.1241E+00  0.1207E+00
     18.247  0.4016E-02  0.5916E-02  0.1248E+00  0.1217E+00
     18.419  0.3668E-02  0.5370E-02  0.1254E+00  0.1226E+00
     18.590  0.3356E-02  0.4569E-02  0.1260E+00  0.1234E+00
     18.761  0.2575E-02  0.3288E-02  0.1264E+00  0.1240E+00
     18.932  0.3038E-02  0.4946E-02  0.1269E+00  0.1248E+00
     19.104  0.3139E-02  0.3101E-02  0.1275E+00  0.1254E+00
     19.275  0.2465E-02  0.3717E-02  0.1279E+00  0.1260E+00
     19.446  0.2929E-02  0.3862E-02  0.1284E+00  0.1267E+00
     19.617  0.3644E-02  0.1944E-02  0.1290E+00  0.1270E+00
     19.789  0.1742E-02  0.4734E-02  0.1293E+00  0.1278E+00
     19.960  0.5466E-02  0.2611E-02  0.1303E+00  0.1283E+00
     20.131  0.4190E-02  0.2898E-02  0.1310E+00  0.1288E+00
     20.302  0.3124E-02  0.2801E-02  0.1315E+00  0.1292E+00
     20.473  0.5551E-02  0.4525E-02  0.1325E+00  0.1300E+00
     20.645  0.1386E-02  0.4740E-02  0.1327E+00  0.1308E+00
     20.816  0.5371E-02  0.5188E-02  0.1336E+00  0.1317E+00
     20.987  0.5216E-02  0.4146E-02  0.1345E+00  0.1324E+00
     21.158  0.2447E-02  0.1261E-02  0.1349E+00  0.1326E+00
     21.330  0.2565E-02  0.6153E-02  0.1354E+00  0.1337E+00
     21.501  0.2463E-02  0.4923E-02  0.1358E+00  0.1345E+00
     21.672  0.3895E-02  0.3385E-02  0.1365E+00  0.1351E+00
     21.843  0.5124E-02  0.2264E-02  0.1373E+00  0.1355E+00
     22.014  0.2439E-02  0.3283E-02  0.1378E+00  0.1361E+00
     22.186  0.2794E-02  0.3881E-02  0.1382E+00  0.1367E+00
     22.357  0.1024E-02  0.4546E-02  0.1384E+00  0.1375E+00
     22.528  0.3970E-02  0.2278E-02  0.1391E+00  0.1379E+00
     22.699  0.2728E-02  0.2044E-02  0.1396E+00  0.1382E+00
     22.871  0.1299E-02  0.3028E-02  0.1398E+00  0.1388E+00
     23.042  0.2430E-02  0.2634E-02  0.1402E+00  0.1392E+00
     23.213  0.6448E-02  0.2412E-02  0.1413E+00  0.1396E+00
     23.384  0.2356E-02  0.1624E-02  0.1417E+00  0.1399E+00
     23.555  0.2636E-02  0.4639E-02  0.1421E+00  0.1407E+00
     23.727  0.7745E-03  0.4865E-02  0.1423E+00  0.1415E+00
     23.898  0.5170E-02  0.2712E-02  0.1432E+00  0.1420E+00
     24.069  0.5853E-02  0.9367E-03  0.1442E+00  0.1422E+00
     24.240  0.1680E-02  0.3517E-02  0.1445E+00  0.1428E+00
     24.412  0.2738E-02  0.6281E-02  0.1449E+00  0.1438E+00
     24.583  0.3614E-02  0.3365E-02  0.1455E+00  0.1444E+00
     24.754  0.3840E-02  0.1338E-02  0.1462E+00  0.1446E+00
     24.925  0.3809E-02  0.3970E-02  0.1469E+00  0.1453E+00
     25.096  0.5479E-02  0.4230E-02  0.1478E+00  0.1460E+00
     25.268  0.3623E-02  0.4241E-02  0.1484E+00  0.1468E+00
     25.439  0.6552E-02  0.5707E-02  0.1495E+00  0.1477E+00
     25.610  0.5240E-02  0.4318E-02  0.1504E+00  0.1485E+00
     25.781  0.2863E-02  0.4917E-02  0.1509E+00  0.1493E+00
     25.953  0.2653E-02  0.5855E-02  0.1514E+00  0.1503E+00
     26.124  0.2487E-02  0.2713E-02  0.1518E+00  0.1508E+00
     26.295  0.7429E-02  0.3922E-02  0.1531E+00  0.1515E+00
     26.466  0.1696E-02  0.3198E-02  0.1534E+00  0.1520E+00
     26.637  0.2947E-02  0.7050E-02  0.1539E+00  0.1532E+00
     26.809  0.8589E-02  0.1083E-02  0.1553E+00  0.1534E+00
     26.980  0.3780E-02  0.3798E-02  0.1560E+00  0.1541E+00
     27.151  0.3612E-02  0.8326E-02  0.1566E+00  0.1555E+00
     27.322  0.2942E-02  0.3288E-02  0.1571E+00  0.1560E+00
     27.494  0.6429E-02  0.3847E-02  0.1582E+00  0.1567E+00
     27.665  0.2111E-02  0.5002E-02  0.1586E+00  0.1576E+00
     27.836  0.5079E-02  0.4843E-02  0.1594E+00  0.1584E+00
     28.007  0.2470E-02  0.3410E-02  0.1599E+00  0.1590E+00
     28.178  0.3678E-02  0.3380E-02  0.1605E+00  0.1596E+00
     28.350  0.4876E-02  0.3408E-02  0.1613E+00  0.1601E+00
     28.521  0.3105E-02  0.3696E-02  0.1619E+00  0.1608E+00
     28.692  0.5081E-02  0.4888E-02  0.1627E+00  0.1616E+00
     28.863  0.4447E-02  0.4726E-02  0.1635E+00  0.1624E+00
     29.035  0.3232E-02  0.4851E-02  0.1640E+00  0.1632E+00
     29.206  0.7659E-02  0.3819E-02  0.1654E+00  0.1639E+00
     29.377  0.2806E-02  0.4647E-02  0.1658E+00  0.1647E+00
     29.548  0.3641E-02  0.6264E-02  0.1665E+00  0.1658E+00
     29.719  0.4024E-02  0.2534E-02  0.1671E+00  0.1662E+00
     29.891  0.4753E-02  0.5206E-02  0.1680E+00  0.1671E+00
     30.062  0.2858E-02  0.3750E-02  0.1685E+00  0.1677E+00
     30.233  0.5674E-02  0.4191E-02  0.1694E+00  0.1685E+00
     30.404  0.2884E-02  0.5930E-02  0.1699E+00  0.1695E+00
     30.576  0.3494E-02  0.2321E-02  0.1705E+00  0.1699E+00
     30.747  0.4430E-02  0.2679E-02  0.1713E+00  0.1703E+00
     30.918  0.2799E-02  0.4836E-02  0.1718E+00  0.1712E+00
     31.089  0.3005E-02  0.3493E-02  0.1723E+00  0.1717E+00
     31.260  0.4269E-02  0.4084E-02  0.1730E+00  0.1724E+00
     31.432  0.7442E-02  0.3450E-02  0.1743E+00  0.1730E+00
     31.603  0.5622E-02  0.6219E-02  0.1752E+00  0.1741E+00
     31.774  0.2937E-02  0.6051E-02  0.1757E+00  0.1751E+00
     31.945  0.2526E-02  0.3272E-02  0.1762E+00  0.1757E+00
     32.117  0.5737E-02  0.3117E-02  0.1772E+00  0.1762E+00
     32.288  0.3616E-02  0.4151E-02  0.1778E+00  0.1769E+00
     32.459  0.6786E-02  0.5841E-02  0.1789E+00  0.1779E+00
     32.630  0.5131E-02  0.4187E-02  0.1798E+00  0.1787E+00
     32.801  0.3413E-02  0.5839E-02  0.1804E+00  0.1797E+00
     32.973  0.1975E-02  0.4591E-02  0.1807E+00  0.1804E+00
     33.144  0.5294E-03  0.1134E-02  0.1808E+00  0.1806E+00
     33.315  0.4479E-02  0.1995E-02  0.1816E+00  0.1810E+00
     33.486  0.4689E-02  0.3386E-02  0.1824E+00  0.1816E+00
     33.658  0.6162E-02  0.5677E-02  0.1835E+00  0.1825E+00
     33.829  0.3733E-02  0.3060E-02  0.1841E+00  0.1831E+00
     34.000  0.1022E-01  0.4263E-02  0.1858E+00  0.1838E+00
     34.171  0.6430E-02  0.8259E-02  0.1869E+00  0.1852E+00
     34.342  0.3622E-02  0.9271E-02  0.1876E+00  0.1868E+00
     34.514  0.4655E-02  0.5541E-02  0.1884E+00  0.1877E+00
     34.685  0.5615E-02  0.2912E-02  0.1893E+00  0.1882E+00
     34.856  0.4040E-02  0.4433E-02  0.1900E+00  0.1890E+00
     35.027  0.4093E-02  0.5581E-02  0.1907E+00  0.1900E+00
     35.199  0.3147E-02  0.5239E-02  0.1913E+00  0.1908E+00
     35.370  0.2855E-02  0.3138E-02  0.1917E+00  0.1914E+00
     35.541  0.1169E-02  0.3037E-02  0.1919E+00  0.1919E+00
     35.712  0.5531E-02  0.7543E-03  0.1929E+00  0.1920E+00
     35.883  0.3818E-02  0.4291E-02  0.1935E+00  0.1928E+00
     36.055  0.1795E-02  0.3694E-02  0.1938E+00  0.1934E+00
     36.226  0.5236E-02  0.2301E-02  0.1947E+00  0.1938E+00
     36.397  0.5013E-02  0.5387E-02  0.1956E+00  0.1947E+00
     36.568  0.6376E-02  0.4325E-02  0.1967E+00  0.1955E+00
     36.740  0.5026E-02  0.5330E-02  0.1976E+00  0.1964E+00
     36.911  0.2204E-02  0.5396E-02  0.1979E+00  0.1973E+00
     37.082  0.2816E-02  0.3033E-02  0.1984E+00  0.1978E+00
     37.253  0.6952E-02  0.3245E-02  0.1996E+00  0.1984E+00
     37.424  0.3571E-02  0.6175E-02  0.2002E+00  0.1994E+00
     37.596  0.5377E-02  0.4623E-02  0.2011E+00  0.2002E+00
     37.767  0.3600E-02  0.4161E-02  0.2018E+00  0.2009E+00
     37.938  0.2392E-02  0.4660E-02  0.2022E+00  0.2017E+00
     38.109  0.4475E-02  0.2211E-02  0.2029E+00  0.2021E+00
     38.281  0.9769E-02  0.4479E-02  0.2046E+00  0.2029E+00
     38.452  0.3236E-02  0.7604E-02  0.2052E+00  0.2042E+00
     38.623  0.3242E-02  0.4206E-02  0.2057E+00  0.2049E+00
     38.794  0.3624E-02  0.4816E-02  0.2063E+00  0.2057E+00
     38.965  0.3556E-02  0.3230E-02  0.2069E+00  0.2063E+00
     39.137  0.3940E-02  0.5854E-02  0.2076E+00  0.2073E+00
     39.308  0.2726E-02  0.2076E-02  0.2081E+00  0.2076E+00
     39.479  0.6242E-02  0.1880E-02  0.2092E+00  0.2080E+00
     39.650  0.6005E-02  0.5975E-02  0.2102E+00  0.2090E+00
     39.822  0.5652E-02  0.6079E-02  0.2111E+00  0.2100E+00
     39.993  0.5957E-02  0.5738E-02  0.2122E+00  0.2110E+00
     40.164  0.5985E-02  0.7208E-02  0.2132E+00  0.2122E+00
     40.335  0.5604E-02  0.4526E-02  0.2142E+00  0.2130E+00
     40.506  0.1773E-02  0.6132E-02  0.2145E+00  0.2141E+00
     40.678  0.4362E-02  0.3391E-02  0.2152E+00  0.2146E+00
     40.849  0.5839E-02  0.4103E-02  0.2162E+00  0.2153E+00
     41.020  0.5218E-02  0.4736E-02  0.2171E+00  0.2162E+00
     41.191  0.3044E-02  0.4963E-02  0.2176E+00  0.2170E+00
     41.363  0.1866E-02  0.4183E-02  0.2179E+00  0.2177E+00
     41.534  0.7523E-03  0.1673E-02  0.2181E+00  0.2180E+00
     41.705  0.6068E-02  0.1897E-02  0.2191E+00  0.2183E+00
     41.876  0.5815E-02  0.4188E-02  0.2201E+00  0.2191E+00
     42.047  0.4804E-02  0.4380E-02  0.2209E+00  0.2198E+00
     42.219  0.9733E-02  0.5312E-02  0.2226E+00  0.2207E+00
     42.390  0.4653E-02  0.5458E-02  0.2234E+00  0.2216E+00
     42.561  0.6889E-02  0.9472E-02  0.2246E+00  0.2233E+00
     42.732  0.2944E-02  0.7119E-02  0.2251E+00  0.2245E+00
     42.904  0.6856E-02  0.2200E-02  0.2262E+00  0.2249E+00
     43.075  0.2571E-02  0.4083E-02  0.2267E+00  0.2256E+00
     43.246  0.5260E-02  0.6276E-02  0.2276E+00  0.2266E+00
     43.417  0.2942E-02  0.4889E-02  0.2281E+00  0.2275E+00
     43.588  0.6946E-02  0.4344E-02  0.2293E+00  0.2282E+00
     43.760  0.6266E-02  0.5391E-02  0.2303E+00  0.2291E+00
     43.931  0.3729E-02  0.6761E-02  0.2310E+00  0.2303E+00
     44.102  0.1485E-02  0.3939E-02  0.2312E+00  0.2310E+00
     44.273  0.4575E-02  0.9878E-03  0.2320E+00  0.2311E+00
     44.445  0.4861E-02  0.1417E-02  0.2329E+00  0.2314E+00
     44.616  0.3972E-02  0.6403E-02  0.2335E+00  0.2325E+00
     44.787  0.3421E-02  0.4431E-02  0.2341E+00  0.2332E+00
     44.958  0.2240E-02  0.3014E-02  0.2345E+00  0.2338E+00
     45.129  0.3090E-02  0.4735E-02  0.2350E+00  0.2346E+00
     45.301  0.1261E-02  0.1430E-02  0.2353E+00  0.2348E+00
     45.472  0.4226E-02  0.1082E-02  0.2360E+00  0.2350E+00
     45.643  0.2803E-02  0.1459E-02  0.2365E+00  0.2352E+00
     45.814  0.6151E-02  0.5714E-02  0.2375E+00  0.2362E+00
     45.986  0.5992E-02  0.3645E-02  0.2385E+00  0.2368E+00
     46.157  0.2407E-02  0.4650E-02  0.2389E+00  0.2376E+00
     46.328  0.2890E-02  0.2754E-02  0.2394E+00  0.2381E+00
     46.499  0.1561E-02  0.1319E-02  0.2397E+00  0.2383E+00
     46.670  0.5736E-03  0.2668E-02  0.2398E+00  0.2388E+00
     46.842  0.2370E-03  0.1311E-02  0.2398E+00  0.2390E+00
     47.013  0.7901E-03  0.1835E-02  0.2400E+00  0.2393E+00
     47.184  0.1032E-03  0.1856E-02  0.2400E+00  0.2397E+00
     47.355  0.9012E-12  0.6865E-03  0.2400E+00  0.2398E+00
     47.527  0.0000E+00  0.1989E-03  0.2400E+00  0.2398E+00
     47.698  0.0000E+00  0.5215E-03  0.2400E+00  0.2399E+00
     47.869  0.0000E+00  0.2384E-04  0.2400E+00  0.2399E+00
     48.040  0.0000E+00  0.5839E-03  0.2400E+00  0.2400E+00
     48.211  0.0000E+00  0.6258E-06  0.2400E+00  0.2400E+00
     48.383  0.0000E+00  0.0000E+00  0.2400E+00  0.2400E+00
     48.554  0.0000E+00  0.0000E+00  0.2400E+00  0.2400E+00
     48.725  0.0000E+00  0.0000E+00  0.2400E+00  0.2400E+00
     48.896  0.0000E+00  0.0000E+00  0.2400E+00  0.2400E+00
     49.068  0.0000E+00  0.0000E+00  0.2400E+00  0.2400E+00
     49.239  0.0000E+00  0.0000E+00  0.2400E+00  0.2400E+00
     49.410  0.0000E+00  0.0000E+00  0.2400E+00  0.2400E+00
     49.581  0.0000E+00  0.0000E+00  0.2400E+00  0.2400E+00
     49.753  0.0000E+00  0.0000E+00  0.2400E+00  0.2400E+00
     49.924  0.0000E+00  0.0000E+00  0.2400E+00  0.2400E+00
     50.095  0.0000E+00  0.0000E+00  0.2400E+00  0.2400E+00
     50.266  0.0000E+00  0.0000E+00  0.2400E+00  0.2400E+00
     50.26617147     -1.10068865  301     10.03112148      1.00000000
     -1.101  0.0000E+00  0.0000E+00  0.0000E+00  0.0000E+00  0.0000E+00  0.0000E+00  0.0000E+00  0.0000E+00  0.0000E+00  0.0000E+00  0.0000E+00  0.0000E+00  0.0000E+00  0.0000E+00  0.0000E+00  0.0000E+00  0.0000E+00  0.0000E+00
     -0.929  0.0000E+00  0.0000E+00  0.0000E+00  0.0000E+00  0.0000E+00  0.0000E+00  0.0000E+00  0.0000E+00  0.0000E+00  0.0000E+00  0.0000E+00  0.0000E+00  0.0000E+00  0.0000E+00  0.0000E+00  0.0000E+00  0.0000E+00  0.0000E+00
     -0.758  0.0000E+00  0.0000E+00  0.0000E+00  0.0000E+00  0.0000E+00  0.0000E+00  0.0000E+00  0.0000E+00  0.0000E+00  0.0000E+00  0.0000E+00  0.0000E+00  0.0000E+00  0.0000E+00  0.0000E+00  0.0000E+00  0.0000E+00  0.0000E+00
     -0.587  0.0000E+00  0.0000E+00  0.0000E+00  0.0000E+00  0.0000E+00  0.0000E+00  0.0000E+00  0.0000E+00  0.0000E+00  0.0000E+00  0.0000E+00  0.0000E+00  0.0000E+00  0.0000E+00  0.0000E+00  0.0000E+00  0.0000E+00  0.0000E+00
     -0.416  0.0000E+00  0.0000E+00  0.0000E+00  0.0000E+00  0.0000E+00  0.0000E+00  0.0000E+00  0.0000E+00  0.0000E+00  0.0000E+00  0.0000E+00  0.0000E+00  0.0000E+00  0.0000E+00  0.0000E+00  0.0000E+00  0.0000E+00  0.0000E+00
     -0.245  0.0000E+00  0.0000E+00  0.0000E+00  0.0000E+00  0.0000E+00  0.0000E+00  0.0000E+00  0.0000E+00  0.0000E+00  0.0000E+00  0.0000E+00  0.0000E+00  0.0000E+00  0.0000E+00  0.0000E+00  0.0000E+00  0.0000E+00  0.0000E+00
     -0.073  0.0000E+00  0.0000E+00  0.0000E+00  0.0000E+00  0.0000E+00  0.0000E+00  0.0000E+00  0.0000E+00  0.0000E+00  0.0000E+00  0.0000E+00  0.0000E+00  0.0000E+00  0.0000E+00  0.0000E+00  0.0000E+00  0.0000E+00  0.0000E+00
      0.098  0.0000E+00  0.0000E+00  0.0000E+00  0.0000E+00  0.0000E+00  0.0000E+00  0.0000E+00  0.0000E+00  0.0000E+00  0.0000E+00  0.0000E+00  0.0000E+00  0.0000E+00  0.0000E+00  0.0000E+00  0.0000E+00  0.0000E+00  0.0000E+00
      0.269  0.0000E+00  0.0000E+00  0.0000E+00  0.0000E+00  0.0000E+00  0.0000E+00  0.0000E+00  0.0000E+00  0.0000E+00  0.0000E+00  0.0000E+00  0.0000E+00  0.0000E+00  0.0000E+00  0.0000E+00  0.0000E+00  0.0000E+00  0.0000E+00
      0.440  0.0000E+00  0.0000E+00  0.0000E+00  0.0000E+00  0.0000E+00  0.0000E+00  0.0000E+00  0.0000E+00  0.0000E+00  0.0000E+00  0.0000E+00  0.0000E+00  0.0000E+00  0.0000E+00  0.0000E+00  0.0000E+00  0.0000E+00  0.0000E+00
      0.612  0.0000E+00  0.0000E+00  0.0000E+00  0.0000E+00  0.0000E+00  0.0000E+00  0.0000E+00  0.0000E+00  0.0000E+00  0.0000E+00  0.0000E+00  0.0000E+00  0.0000E+00  0.0000E+00  0.0000E+00  0.0000E+00  0.0000E+00  0.0000E+00
      0.783  0.0000E+00  0.0000E+00  0.0000E+00  0.0000E+00  0.0000E+00  0.0000E+00  0.0000E+00  0.0000E+00  0.0000E+00  0.0000E+00  0.0000E+00  0.0000E+00  0.0000E+00  0.0000E+00  0.0000E+00  0.0000E+00  0.0000E+00  0.0000E+00
      0.954  0.8035E-18  0.2107E-17  0.4834E-35  0.4375E-32  0.3017E-32  0.5618E-33  0.4834E-35  0.4375E-32  0.3700E-32  0.6758E-31  0.4774E-33  0.2889E-34  0.4992E-23  0.1821E-22  0.4774E-33  0.2889E-34  0.3700E-32  0.6758E-31
      1.125  0.1240E-05  0.1859E-05  0.7460E-23  0.3861E-20  0.6247E-18  0.1382E-17  0.7460E-23  0.3861E-20  0.5709E-20  0.5963E-19  0.7367E-21  0.2550E-22  0.7704E-11  0.1607E-10  0.7367E-21  0.2550E-22  0.5709E-20  0.5963E-19
      1.296  0.1727E-02  0.1748E-02  0.1556E-10  0.2565E-10  0.1413E-06  0.1946E-06  0.1556E-10  0.2565E-10  0.2847E-12  0.3416E-12  0.1020E-17  0.2449E-19  0.1225E-07  0.1633E-07  0.1020E-17  0.2449E-19  0.2847E-12  0.3416E-12
      1.468  0.7585E-02  0.7952E-02  0.4615E-04  0.5080E-04  0.5223E-04  0.5272E-04  0.4615E-04  0.5080E-04  0.8447E-06  0.6764E-06  0.1509E-10  0.1565E-10  0.1441E-05  0.1140E-05  0.1509E-10  0.1565E-10  0.8447E-06  0.6764E-06
      1.639  0.1851E-01  0.1866E-01  0.2131E-03  0.2164E-03  0.1803E-03  0.1897E-03  0.2131E-03  0.2164E-03  0.3981E-05  0.2925E-05  0.5855E-05  0.4546E-05  0.1432E-05  0.1109E-05  0.5855E-05  0.4546E-05  0.3981E-05  0.2925E-05
      1.810  0.9432E-02  0.8858E-02  0.1051E-03  0.9904E-04  0.1591E-03  0.1517E-03  0.1051E-03  0.9904E-04  0.1986E-05  0.1350E-05  0.4489E-05  0.3117E-05  0.1510E-05  0.1029E-05  0.4489E-05  0.3117E-05  0.1986E-05  0.1350E-05
      1.981  0.1151E-01  0.1146E-01  0.2947E-03  0.2962E-03  0.1853E-03  0.1867E-03  0.2947E-03  0.2962E-03  0.1637E-04  0.1178E-04  0.9125E-07  0.5481E-07  0.2664E-04  0.1892E-04  0.9125E-07  0.5481E-07  0.1637E-04  0.1178E-04
      2.153  0.4252E-01  0.4197E-01  0.1073E-02  0.1062E-02  0.1468E-02  0.1477E-02  0.1073E-02  0.1062E-02  0.5757E-04  0.3966E-04  0.7470E-04  0.5353E-04  0.7488E-04  0.5077E-04  0.7470E-04  0.5353E-04  0.5757E-04  0.3966E-04
      2.324  0.1951E-01  0.1867E-01  0.8773E-03  0.8450E-03  0.2164E-03  0.2039E-03  0.8773E-03  0.8450E-03  0.7898E-04  0.5129E-04  0.3112E-04  0.1945E-04  0.4090E-04  0.2875E-04  0.3112E-04  0.1945E-04  0.7898E-04  0.5129E-04
      2.495  0.1163E-01  0.1196E-01  0.5105E-03  0.5456E-03  0.3178E-03  0.2749E-03  0.5105E-03  0.5456E-03  0.4526E-04  0.3336E-04  0.4514E-04  0.2829E-04  0.1668E-04  0.1259E-04  0.4514E-04  0.2829E-04  0.4526E-04  0.3336E-04
      2.666  0.1938E-01  0.2024E-01  0.5849E-03  0.6214E-03  0.1430E-02  0.1507E-02  0.5849E-03  0.6214E-03  0.3978E-04  0.2835E-04  0.1275E-03  0.9297E-04  0.1001E-03  0.6460E-04  0.1275E-03  0.9297E-04  0.3978E-04  0.2835E-04
      2.837  0.4474E-01  0.3860E-01  0.1937E-02  0.1627E-02  0.3326E-02  0.3054E-02  0.1937E-02  0.1627E-02  0.2489E-03  0.1303E-03  0.2946E-03  0.1933E-03  0.5133E-03  0.2664E-03  0.2946E-03  0.1933E-03  0.2489E-03  0.1303E-03
      3.009  0.4199E-01  0.4245E-01  0.3322E-02  0.3236E-02  0.8147E-03  0.1107E-02  0.3322E-02  0.3236E-02  0.5717E-03  0.3596E-03  0.2116E-03  0.1243E-03  0.3848E-03  0.2920E-03  0.2116E-03  0.1243E-03  0.5717E-03  0.3596E-03
      3.180  0.7156E-02  0.1040E-01  0.4826E-03  0.8578E-03  0.4515E-03  0.2322E-03  0.4826E-03  0.8578E-03  0.8729E-04  0.9739E-04  0.7829E-04  0.4618E-04  0.8755E-04  0.5721E-04  0.7829E-04  0.4618E-04  0.8729E-04  0.9739E-04
      3.351  0.4853E-01  0.3035E-01  0.3695E-02  0.2018E-02  0.3354E-02  0.2686E-02  0.3695E-02  0.2018E-02  0.9140E-03  0.2789E-03  0.8657E-03  0.2985E-03  0.5563E-03  0.2944E-03  0.8657E-03  0.2985E-03  0.9140E-03  0.2789E-03
      3.522  0.4276E-01  0.6301E-01  0.2965E-02  0.5082E-02  0.4013E-02  0.4833E-02  0.2965E-02  0.5082E-02  0.6887E-03  0.7406E-03  0.1017E-02  0.9411E-03  0.7222E-03  0.3904E-03  0.1017E-02  0.9411E-03  0.6887E-03  0.7406E-03
      3.694  0.1843E-01  0.3299E-02  0.8631E-03  0.4342E-04  0.3097E-02  0.7427E-03  0.8631E-03  0.4342E-04  0.3148E-03  0.4668E-05  0.4394E-03  0.1745E-04  0.1662E-02  0.2384E-03  0.4394E-03  0.1745E-04  0.3148E-03  0.4668E-05
      3.865  0.2043E-01  0.3276E-01  0.2034E-02  0.2193E-02  0.1582E-02  0.4758E-02  0.2034E-02  0.2193E-02  0.7430E-03  0.4616E-03  0.4601E-03  0.5338E-03  0.9730E-03  0.1318E-02  0.4601E-03  0.5338E-03  0.7430E-03  0.4616E-03
      4.036  0.7009E-01  0.3473E-01  0.8132E-02  0.4440E-02  0.5675E-02  0.2255E-02  0.8132E-02  0.4440E-02  0.3361E-02  0.9297E-03  0.2772E-02  0.7264E-03  0.2143E-02  0.5371E-03  0.2772E-02  0.7264E-03  0.3361E-02  0.9297E-03
      4.207  0.4375E-01  0.7030E-01  0.4810E-02  0.8305E-02  0.4693E-02  0.6691E-02  0.4810E-02  0.8305E-02  0.2535E-02  0.2200E-02  0.1957E-02  0.1479E-02  0.2717E-02  0.2023E-02  0.1957E-02  0.1479E-02  0.2535E-02  0.2200E-02
      4.378  0.5945E-01  0.3566E-01  0.7058E-02  0.3872E-02  0.6424E-02  0.5253E-02  0.7058E-02  0.3872E-02  0.4925E-02  0.9792E-03  0.5233E-02  0.1481E-02  0.3725E-02  0.1084E-02  0.5233E-02  0.1481E-02  0.4925E-02  0.9792E-03
      4.550  0.2776E-01  0.4106E-01  0.2866E-02  0.5763E-02  0.3470E-02  0.3855E-02  0.2866E-02  0.5763E-02  0.3639E-02  0.2090E-02  0.1151E-02  0.2156E-02  0.8453E-02  0.9926E-03  0.1151E-02  0.2156E-02  0.3639E-02  0.2090E-02
      4.721  0.5248E-01  0.2439E-01  0.6075E-02  0.3825E-02  0.9536E-02  0.1564E-02  0.6075E-02  0.3825E-02  0.6058E-02  0.2199E-02  0.1104E-01  0.4868E-03  0.2621E-02  0.2022E-02  0.1104E-01  0.4868E-03  0.6058E-02  0.2199E-02
      4.892  0.4523E-01  0.3814E-01  0.5021E-02  0.3145E-02  0.8732E-02  0.1045E-01  0.5021E-02  0.3145E-02  0.7262E-02  0.9424E-03  0.1011E-01  0.2776E-02  0.1098E-01  0.4422E-02  0.1011E-01  0.2776E-02  0.7262E-02  0.9424E-03
      5.063  0.1139E+00  0.4609E-01  0.1743E-01  0.6955E-02  0.7489E-02  0.6810E-02  0.1743E-01  0.6955E-02  0.4908E-01  0.3696E-02  0.3716E-01  0.5605E-02  0.4877E-01  0.8655E-03  0.3716E-01  0.5605E-02  0.4908E-01  0.3696E-02
      5.235  0.8510E-01  0.5425E-01  0.9591E-02  0.9423E-02  0.1013E-01  0.8546E-02  0.9591E-02  0.9423E-02  0.5667E-01  0.4402E-02  0.7566E-01  0.3179E-02  0.4684E-01  0.6447E-02  0.7566E-01  0.3179E-02  0.5667E-01  0.4402E-02
      5.406  0.7390E-01  0.5337E-01  0.9269E-02  0.9939E-02  0.1267E-01  0.6348E-02  0.9269E-02  0.9939E-02  0.6227E-01  0.8840E-02  0.7190E-01  0.4217E-02  0.7197E-01  0.7658E-02  0.7190E-01  0.4217E-02  0.6227E-01  0.8840E-02
      5.577  0.7896E-01  0.5080E-01  0.1280E-01  0.1045E-01  0.1516E-01  0.4797E-02  0.1280E-01  0.1045E-01  0.1432E+00  0.9136E-02  0.1038E+00  0.7097E-02  0.1022E+00  0.9099E-02  0.1038E+00  0.7097E-02  0.1432E+00  0.9136E-02
      5.748  0.5712E-01  0.5709E-01  0.1422E-01  0.8385E-02  0.1560E-01  0.1446E-01  0.1422E-01  0.8385E-02  0.1149E+00  0.1025E-01  0.1108E+00  0.1248E-01  0.1036E+00  0.1117E-01  0.1108E+00  0.1248E-01  0.1149E+00  0.1025E-01
      5.919  0.4555E-01  0.6842E-01  0.1563E-01  0.1112E-01  0.1650E-01  0.1285E-01  0.1563E-01  0.1112E-01  0.1315E+00  0.1968E-01  0.1837E+00  0.2510E-01  0.1776E+00  0.1411E-01  0.1837E+00  0.2510E-01  0.1315E+00  0.1968E-01
      6.091  0.2597E-01  0.3743E-01  0.1482E-01  0.2787E-02  0.1874E-01  0.8633E-02  0.1482E-01  0.2787E-02  0.9054E-01  0.1323E-01  0.1583E+00  0.1670E-01  0.9601E-01  0.3837E-01  0.1583E+00  0.1670E-01  0.9054E-01  0.1323E-01
      6.262  0.2326E-01  0.1014E+00  0.2081E-01  0.2048E-01  0.1467E-01  0.1011E-01  0.2081E-01  0.2048E-01  0.1257E+00  0.6575E-01  0.1278E+00  0.5793E-01  0.1947E+00  0.3644E-01  0.1278E+00  0.5793E-01  0.1257E+00  0.6575E-01
      6.433  0.1077E-01  0.7508E-01  0.1538E-01  0.1573E-01  0.1398E-01  0.1578E-01  0.1538E-01  0.1573E-01  0.1411E+00  0.4009E-01  0.1158E+00  0.5235E-01  0.1995E+00  0.4345E-01  0.1158E+00  0.5235E-01  0.1411E+00  0.4009E-01
      6.604  0.1084E-01  0.5898E-01  0.2474E-01  0.1132E-01  0.1590E-01  0.1502E-01  0.2474E-01  0.1132E-01  0.2282E+00  0.5103E-01  0.1204E+00  0.6192E-01  0.2038E+00  0.5725E-01  0.1204E+00  0.6192E-01  0.2282E+00  0.5103E-01
      6.776  0.1203E-01  0.3686E-01  0.2441E-01  0.9277E-02  0.1776E-01  0.1412E-01  0.2441E-01  0.9277E-02  0.2341E+00  0.8271E-01  0.1389E+00  0.5666E-01  0.2174E+00  0.3396E-01  0.1389E+00  0.5666E-01  0.2341E+00  0.8271E-01
      6.947  0.1105E-01  0.5248E-01  0.2162E-01  0.1766E-01  0.1722E-01  0.1962E-01  0.2162E-01  0.1766E-01  0.2022E+00  0.7727E-01  0.9995E-01  0.8988E-01  0.1558E+00  0.1115E+00  0.9995E-01  0.8988E-01  0.2022E+00  0.7727E-01
      7.118  0.4157E-02  0.2502E-01  0.7790E-02  0.1340E-01  0.1012E-01  0.1782E-01  0.7790E-02  0.1340E-01  0.1184E+00  0.8987E-01  0.5610E-01  0.1383E+00  0.1214E+00  0.7252E-01  0.5610E-01  0.1383E+00  0.1184E+00  0.8987E-01
      7.289  0.8681E-02  0.1798E-01  0.1834E-01  0.1783E-01  0.2078E-01  0.2226E-01  0.1834E-01  0.1783E-01  0.1653E+00  0.6655E-01  0.2813E+00  0.1721E+00  0.3406E+00  0.8377E-01  0.2813E+00  0.1721E+00  0.1653E+00  0.6655E-01
      7.460  0.1262E-01  0.8001E-02  0.2014E-01  0.1797E-01  0.2319E-01  0.1347E-01  0.2014E-01  0.1797E-01  0.2095E+00  0.1070E+00  0.3200E+00  0.6823E-01  0.2940E+00  0.1214E+00  0.3200E+00  0.6823E-01  0.2095E+00  0.1070E+00