PROCAR lm decomposed
# of k-points:   95         # of bands:   24         # of ions:    2

 k-point     1 :    0.00000000 0.00000000 0.00000000     weight = 0.00086806

band     1 # energy    1.23837297 # occ.  1.00000000
 
ion      s     py     pz     px    dxy    dyz    dz2    dxz  x2-y2    tot
    1  0.357  0.000  0.000  0.000  0.000  0.000  0.000  0.000  0.000  0.357
    2  0.357  0.000  0.000  0.000  0.000  0.000  0.000  0.000  0.000  0.357
tot    0.714  0.000  0.000  0.000  0.000  0.000  0.000  0.000  0.000  0.714
 
band     2 # energy    4.99277191 # occ.  1.00000000
 
ion      s     py     pz     px    dxy    dyz    dz2    dxz  x2-y2    tot
    1  0.078  0.000  0.000  0.000  0.000  0.000  0.366  0.000  0.000  0.444
    2  0.078  0.000  0.000  0.000  0.000  0.000  0.366  0.000  0.000  0.444
tot    0.156  0.000  0.000  0.000  0.000  0.000  0.732  0.000  0.000  0.888
 
band     3 # energy    7.47041288 # occ.  1.00000000
 
ion      s     py     pz     px    dxy    dyz    dz2    dxz  x2-y2    tot
    1  0.000  0.000  0.000  0.000  0.000  0.000  0.485  0.000  0.000  0.485
    2  0.000  0.000  0.000  0.000  0.000  0.000  0.485  0.000  0.000  0.485
tot    0.000  0.000  0.000  0.000  0.000  0.000  0.971  0.000  0.000  0.971
 
band     4 # energy    7.47754281 # occ.  1.00000000
 
ion      s     py     pz     px    dxy    dyz    dz2    dxz  x2-y2    tot
    1  0.000  0.001  0.000  0.000  0.000  0.000  0.000  0.000  0.482  0.482
    2  0.000  0.001  0.000  0.000  0.000  0.000  0.000  0.000  0.482  0.482
tot    0.000  0.001  0.000  0.000  0.000  0.000  0.000  0.000  0.963  0.965
 
band     5 # energy    7.47754285 # occ.  1.00000000
 
ion      s     py     pz     px    dxy    dyz    dz2    dxz  x2-y2    tot
    1  0.000  0.000  0.000  0.001  0.482  0.000  0.000  0.000  0.000  0.482
    2  0.000  0.000  0.000  0.001  0.482  0.000  0.000  0.000  0.000  0.482
tot    0.000  0.000  0.000  0.001  0.963  0.000  0.000  0.000  0.000  0.965
 
band     6 # energy    7.78417697 # occ.  1.00000000
 
ion      s     py     pz     px    dxy    dyz    dz2    dxz  x2-y2    tot
    1  0.000  0.001  0.000  0.000  0.000  0.000  0.000  0.000  0.486  0.487
    2  0.000  0.001  0.000  0.000  0.000  0.000  0.000  0.000  0.486  0.487
tot    0.000  0.001  0.000  0.000  0.000  0.000  0.000  0.000  0.972  0.974
 
band     7 # energy    7.78417704 # occ.  1.00000000
 
ion      s     py     pz     px    dxy    dyz    dz2    dxz  x2-y2    tot
    1  0.000  0.000  0.000  0.001  0.486  0.000  0.000  0.000  0.000  0.487
    2  0.000  0.000  0.000  0.001  0.486  0.000  0.000  0.000  0.000  0.487
tot    0.000  0.000  0.000  0.001  0.972  0.000  0.000  0.000  0.000  0.974
 
band     8 # energy    8.11935039 # occ.  1.00000000
 
ion      s     py     pz     px    dxy    dyz    dz2    dxz  x2-y2    tot
    1  0.000  0.000  0.000  0.000  0.000  0.000  0.000  0.489  0.000  0.489
    2  0.000  0.000  0.000  0.000  0.000  0.000  0.000  0.489  0.000  0.489
tot    0.000  0.000  0.000  0.000  0.000  0.000  0.000  0.979  0.000  0.979
 
band     9 # energy    8.11935040 # occ.  1.00000000
 
ion      s     py     pz     px    dxy    dyz    dz2    dxz  x2-y2    tot
    1  0.000  0.000  0.000  0.000  0.000  0.489  0.000  0.000  0.000  0.489
    2  0.000  0.000  0.000  0.000  0.000  0.489  0.000  0.000  0.000  0.489
tot    0.000  0.000  0.000  0.000  0.000  0.979  0.000  0.000  0.000  0.979
 
band    10 # energy    9.20447902 # occ.  1.00000000
 
ion      s     py     pz     px    dxy    dyz    dz2    dxz  x2-y2    tot
    1  0.000  0.000  0.000  0.000  0.000  0.000  0.000  0.492  0.000  0.492
    2  0.000  0.000  0.000  0.000  0.000  0.000  0.000  0.492  0.000  0.492
tot    0.000  0.000  0.000  0.000  0.000  0.000  0.000  0.985  0.000  0.985
 
band    11 # energy    9.20447907 # occ.  1.00000000
 
ion      s     py     pz     px    dxy    dyz    dz2    dxz  x2-y2    tot
    1  0.000  0.000  0.000  0.000  0.000  0.492  0.000  0.000  0.000  0.492
    2  0.000  0.000  0.000  0.000  0.000  0.492  0.000  0.000  0.000  0.492
tot    0.000  0.000  0.000  0.000  0.000  0.985  0.000  0.000  0.000  0.985
 
band    12 # energy   10.03297218 # occ.  0.47912663
 
ion      s     py     pz     px    dxy    dyz    dz2    dxz  x2-y2    tot
    1  0.000  0.000  0.339  0.000  0.000  0.000  0.000  0.000  0.000  0.339
    2  0.000  0.000  0.339  0.000  0.000  0.000  0.000  0.000  0.000  0.339
tot    0.000  0.000  0.679  0.000  0.000  0.000  0.000  0.000  0.000  0.679
 
band    13 # energy   16.33149165 # occ.  0.00000000
 
ion      s     py     pz     px    dxy    dyz    dz2    dxz  x2-y2    tot
    1  0.224  0.000  0.000  0.000  0.000  0.000  0.226  0.000  0.000  0.449
    2  0.224  0.000  0.000  0.000  0.000  0.000  0.226  0.000  0.000  0.449
tot    0.447  0.000  0.000  0.000  0.000  0.000  0.451  0.000  0.000  0.898
 
band    14 # energy   31.90181536 # occ.  0.00000000
 
ion      s     py     pz     px    dxy    dyz    dz2    dxz  x2-y2    tot
    1  0.007  0.000  0.000  0.000  0.000  0.000  0.033  0.000  0.000  0.039
    2  0.007  0.000  0.000  0.000  0.000  0.000  0.033  0.000  0.000  0.039
tot    0.013  0.000  0.000  0.000  0.000  0.000  0.065  0.000  0.000  0.079
 
band    15 # energy   34.30682721 # occ.  0.00000000
 
ion      s     py     pz     px    dxy    dyz    dz2    dxz  x2-y2    tot
    1  0.000  0.271  0.000  0.000  0.000  0.000  0.000  0.000  0.116  0.387
    2  0.000  0.271  0.000  0.000  0.000  0.000  0.000  0.000  0.116  0.387
tot    0.000  0.543  0.000  0.000  0.000  0.000  0.000  0.000  0.232  0.775
 
band    16 # energy   34.30682901 # occ.  0.00000000
 
ion      s     py     pz     px    dxy    dyz    dz2    dxz  x2-y2    tot
    1  0.000  0.000  0.000  0.271  0.116  0.000  0.000  0.000  0.000  0.387
    2  0.000  0.000  0.000  0.271  0.116  0.000  0.000  0.000  0.000  0.387
tot    0.000  0.000  0.000  0.543  0.232  0.000  0.000  0.000  0.000  0.775
 
band    17 # energy   34.97881287 # occ.  0.00000000
 
ion      s     py     pz     px    dxy    dyz    dz2    dxz  x2-y2    tot
    1  0.024  0.000  0.000  0.000  0.000  0.000  0.074  0.000  0.000  0.098
    2  0.024  0.000  0.000  0.000  0.000  0.000  0.074  0.000  0.000  0.098
tot    0.047  0.000  0.000  0.000  0.000  0.000  0.149  0.000  0.000  0.196
 
band    18 # energy   35.44467629 # occ.  0.00000000
 
ion      s     py     pz     px    dxy    dyz    dz2    dxz  x2-y2    tot
    1  0.000  0.000  0.029  0.000  0.000  0.000  0.000  0.000  0.000  0.029
    2  0.000  0.000  0.029  0.000  0.000  0.000  0.000  0.000  0.000  0.029
tot    0.000  0.000  0.058  0.000  0.000  0.000  0.000  0.000  0.000  0.058
 
band    19 # energy   35.67669062 # occ.  0.00000000
 
ion      s     py     pz     px    dxy    dyz    dz2    dxz  x2-y2    tot
    1  0.000  0.089  0.000  0.000  0.000  0.000  0.000  0.000  0.369  0.459
    2  0.000  0.089  0.000  0.000  0.000  0.000  0.000  0.000  0.369  0.459
tot    0.000  0.178  0.000  0.000  0.000  0.000  0.000  0.000  0.739  0.917
 
band    20 # energy   35.67669199 # occ.  0.00000000
 
ion      s     py     pz     px    dxy    dyz    dz2    dxz  x2-y2    tot
    1  0.000  0.000  0.000  0.089  0.369  0.000  0.000  0.000  0.000  0.459
    2  0.000  0.000  0.000  0.089  0.369  0.000  0.000  0.000  0.000  0.459
tot    0.000  0.000  0.000  0.178  0.739  0.000  0.000  0.000  0.000  0.917
 
band    21 # energy   40.32822325 # occ.  0.00000000
 
ion      s     py     pz     px    dxy    dyz    dz2    dxz  x2-y2    tot
    1  0.000  0.000  0.000  0.000  0.000  0.133  0.000  0.000  0.000  0.133
    2  0.000  0.000  0.000  0.000  0.000  0.133  0.000  0.000  0.000  0.133
tot    0.000  0.000  0.000  0.000  0.000  0.267  0.000  0.000  0.000  0.267
 
band    22 # energy   40.32822356 # occ.  0.00000000
 
ion      s     py     pz     px    dxy    dyz    dz2    dxz  x2-y2    tot
    1  0.000  0.000  0.000  0.000  0.000  0.000  0.000  0.133  0.000  0.133
    2  0.000  0.000  0.000  0.000  0.000  0.000  0.000  0.133  0.000  0.133
tot    0.000  0.000  0.000  0.000  0.000  0.000  0.000  0.267  0.000  0.267
 
band    23 # energy   41.14520579 # occ.  0.00000000
 
ion      s     py     pz     px    dxy    dyz    dz2    dxz  x2-y2    tot
    1  0.004  0.000  0.000  0.000  0.000  0.000  0.603  0.000  0.000  0.607
    2  0.004  0.000  0.000  0.000  0.000  0.000  0.603  0.000  0.000  0.607
tot    0.008  0.000  0.000  0.000  0.000  0.000  1.207  0.000  0.000  1.215
 
band    24 # energy   41.71748371 # occ.  0.00000000
 
ion      s     py     pz     px    dxy    dyz    dz2    dxz  x2-y2    tot
    1  0.000  0.000  0.048  0.000  0.000  0.000  0.000  0.000  0.000  0.048
    2  0.000  0.000  0.048  0.000  0.000  0.000  0.000  0.000  0.000  0.048
tot    0.000  0.000  0.096  0.000  0.000  0.000  0.000  0.000  0.000  0.096
 

 k-point     2 :    0.08333333 0.00000000 0.00000000     weight = 0.00520833

band     1 # energy    1.47866127 # occ.  1.00000000
 
ion      s     py     pz     px    dxy    dyz    dz2    dxz  x2-y2    tot
    1  0.349  0.002  0.000  0.006  0.000  0.000  0.000  0.000  0.000  0.357
    2  0.349  0.002  0.000  0.006  0.000  0.000  0.000  0.000  0.000  0.357
tot    0.698  0.004  0.000  0.012  0.000  0.000  0.000  0.000  0.000  0.714
 
band     2 # energy    5.13474086 # occ.  1.00000000
 
ion      s     py     pz     px    dxy    dyz    dz2    dxz  x2-y2    tot
    1  0.071  0.001  0.000  0.004  0.002  0.000  0.367  0.000  0.001  0.445
    2  0.071  0.001  0.000  0.004  0.002  0.000  0.367  0.000  0.001  0.445
tot    0.141  0.002  0.000  0.007  0.004  0.000  0.734  0.000  0.001  0.890
 
band     3 # energy    7.25154720 # occ.  1.00000000
 
ion      s     py     pz     px    dxy    dyz    dz2    dxz  x2-y2    tot
    1  0.000  0.000  0.000  0.001  0.237  0.000  0.162  0.000  0.079  0.480
    2  0.000  0.000  0.000  0.001  0.237  0.000  0.162  0.000  0.079  0.480
tot    0.000  0.001  0.000  0.002  0.475  0.000  0.325  0.000  0.158  0.960
 
band     4 # energy    7.58808552 # occ.  1.00000000
 
ion      s     py     pz     px    dxy    dyz    dz2    dxz  x2-y2    tot
    1  0.000  0.001  0.000  0.000  0.120  0.000  0.000  0.000  0.361  0.482
    2  0.000  0.001  0.000  0.000  0.120  0.000  0.000  0.000  0.361  0.482
tot    0.000  0.002  0.000  0.001  0.241  0.000  0.000  0.000  0.722  0.965
 
band     5 # energy    7.65961778 # occ.  1.00000000
 
ion      s     py     pz     px    dxy    dyz    dz2    dxz  x2-y2    tot
    1  0.000  0.000  0.000  0.000  0.152  0.000  0.282  0.000  0.051  0.485
    2  0.000  0.000  0.000  0.000  0.152  0.000  0.282  0.000  0.051  0.485
tot    0.000  0.000  0.000  0.001  0.304  0.000  0.564  0.000  0.101  0.971
 
band     6 # energy    7.74100266 # occ.  1.00000000
 
ion      s     py     pz     px    dxy    dyz    dz2    dxz  x2-y2    tot
    1  0.001  0.000  0.000  0.000  0.331  0.000  0.043  0.000  0.110  0.486
    2  0.001  0.000  0.000  0.000  0.331  0.000  0.043  0.000  0.110  0.486
tot    0.002  0.000  0.000  0.001  0.661  0.000  0.086  0.000  0.220  0.971
 
band     7 # energy    7.88189368 # occ.  1.00000000
 
ion      s     py     pz     px    dxy    dyz    dz2    dxz  x2-y2    tot
    1  0.000  0.001  0.000  0.000  0.121  0.000  0.000  0.000  0.364  0.487
    2  0.000  0.001  0.000  0.000  0.121  0.000  0.000  0.000  0.364  0.487
tot    0.000  0.002  0.000  0.001  0.243  0.000  0.000  0.000  0.729  0.974
 
band     8 # energy    7.97648406 # occ.  1.00000000
 
ion      s     py     pz     px    dxy    dyz    dz2    dxz  x2-y2    tot
    1  0.000  0.000  0.010  0.000  0.000  0.118  0.000  0.354  0.000  0.482
    2  0.000  0.000  0.010  0.000  0.000  0.118  0.000  0.354  0.000  0.482
tot    0.000  0.000  0.021  0.000  0.000  0.236  0.000  0.707  0.000  0.963
 
band     9 # energy    8.05039783 # occ.  1.00000000
 
ion      s     py     pz     px    dxy    dyz    dz2    dxz  x2-y2    tot
    1  0.000  0.000  0.000  0.000  0.000  0.366  0.000  0.122  0.000  0.488
    2  0.000  0.000  0.000  0.000  0.000  0.366  0.000  0.122  0.000  0.488
tot    0.000  0.000  0.000  0.000  0.000  0.733  0.000  0.244  0.000  0.977
 
band    10 # energy    8.47824688 # occ.  1.00000000
 
ion      s     py     pz     px    dxy    dyz    dz2    dxz  x2-y2    tot
    1  0.000  0.000  0.083  0.000  0.000  0.092  0.000  0.275  0.000  0.450
    2  0.000  0.000  0.083  0.000  0.000  0.092  0.000  0.275  0.000  0.450
tot    0.000  0.000  0.166  0.000  0.000  0.183  0.000  0.550  0.000  0.899
 
band    11 # energy    9.23396637 # occ.  1.00000000
 
ion      s     py     pz     px    dxy    dyz    dz2    dxz  x2-y2    tot
    1  0.000  0.000  0.000  0.000  0.000  0.370  0.000  0.123  0.000  0.493
    2  0.000  0.000  0.000  0.000  0.000  0.370  0.000  0.123  0.000  0.493
tot    0.000  0.000  0.000  0.000  0.000  0.740  0.000  0.247  0.000  0.986
 
band    12 # energy   11.06799463 # occ.  0.00000000
 
ion      s     py     pz     px    dxy    dyz    dz2    dxz  x2-y2    tot
    1  0.000  0.000  0.243  0.000  0.000  0.037  0.000  0.110  0.000  0.390
    2  0.000  0.000  0.243  0.000  0.000  0.037  0.000  0.110  0.000  0.390
tot    0.000  0.000  0.486  0.000  0.000  0.073  0.000  0.220  0.000  0.780
 
band    13 # energy   16.37535732 # occ.  0.00000000
 
ion      s     py     pz     px    dxy    dyz    dz2    dxz  x2-y2    tot
    1  0.220  0.002  0.000  0.005  0.000  0.000  0.219  0.000  0.000  0.447
    2  0.220  0.002  0.000  0.005  0.000  0.000  0.219  0.000  0.000  0.447
tot    0.440  0.004  0.000  0.011  0.000  0.000  0.439  0.000  0.000  0.893
 
band    14 # energy   29.98575428 # occ.  0.00000000
 
ion      s     py     pz     px    dxy    dyz    dz2    dxz  x2-y2    tot
    1  0.014  0.025  0.000  0.075  0.109  0.000  0.023  0.000  0.036  0.283
    2  0.014  0.025  0.000  0.075  0.109  0.000  0.023  0.000  0.036  0.283
tot    0.029  0.050  0.000  0.150  0.218  0.000  0.047  0.000  0.073  0.566
 
band    15 # energy   32.21876256 # occ.  0.00000000
 
ion      s     py     pz     px    dxy    dyz    dz2    dxz  x2-y2    tot
    1  0.000  0.176  0.000  0.059  0.040  0.000  0.000  0.000  0.121  0.396
    2  0.000  0.176  0.000  0.059  0.040  0.000  0.000  0.000  0.121  0.396
tot    0.000  0.352  0.000  0.117  0.081  0.000  0.000  0.000  0.242  0.792
 
band    16 # energy   32.31453004 # occ.  0.00000000
 
ion      s     py     pz     px    dxy    dyz    dz2    dxz  x2-y2    tot
    1  0.022  0.021  0.000  0.064  0.062  0.000  0.039  0.000  0.021  0.229
    2  0.022  0.021  0.000  0.064  0.062  0.000  0.039  0.000  0.021  0.229
tot    0.043  0.043  0.000  0.128  0.123  0.000  0.079  0.000  0.041  0.457
 
band    17 # energy   35.45436409 # occ.  0.00000000
 
ion      s     py     pz     px    dxy    dyz    dz2    dxz  x2-y2    tot
    1  0.000  0.000  0.011  0.000  0.000  0.012  0.000  0.037  0.000  0.060
    2  0.000  0.000  0.011  0.000  0.000  0.012  0.000  0.037  0.000  0.060
tot    0.000  0.000  0.021  0.000  0.000  0.025  0.000  0.074  0.000  0.119
 
band    18 # energy   35.82299372 # occ.  0.00000000
 
ion      s     py     pz     px    dxy    dyz    dz2    dxz  x2-y2    tot
    1  0.004  0.015  0.000  0.046  0.037  0.000  0.035  0.000  0.012  0.151
    2  0.004  0.015  0.000  0.046  0.037  0.000  0.035  0.000  0.012  0.151
tot    0.007  0.031  0.000  0.093  0.074  0.000  0.071  0.000  0.025  0.301
 
band    19 # energy   37.20962614 # occ.  0.00000000
 
ion      s     py     pz     px    dxy    dyz    dz2    dxz  x2-y2    tot
    1  0.000  0.000  0.031  0.000  0.000  0.028  0.000  0.084  0.000  0.143
    2  0.000  0.000  0.031  0.000  0.000  0.028  0.000  0.084  0.000  0.143
tot    0.000  0.000  0.062  0.000  0.000  0.056  0.000  0.168  0.000  0.287
 
band    20 # energy   37.99824510 # occ.  0.00000000
 
ion      s     py     pz     px    dxy    dyz    dz2    dxz  x2-y2    tot
    1  0.000  0.085  0.000  0.028  0.084  0.000  0.000  0.000  0.253  0.450
    2  0.000  0.085  0.000  0.028  0.084  0.000  0.000  0.000  0.253  0.450
tot    0.000  0.169  0.000  0.056  0.169  0.000  0.000  0.000  0.506  0.900
 
band    21 # energy   38.76241034 # occ.  0.00000000
 
ion      s     py     pz     px    dxy    dyz    dz2    dxz  x2-y2    tot
    1  0.006  0.039  0.000  0.117  0.121  0.000  0.006  0.000  0.040  0.330
    2  0.006  0.039  0.000  0.117  0.121  0.000  0.006  0.000  0.040  0.330
tot    0.012  0.078  0.000  0.235  0.243  0.000  0.012  0.000  0.081  0.660
 
band    22 # energy   39.79365053 # occ.  0.00000000
 
ion      s     py     pz     px    dxy    dyz    dz2    dxz  x2-y2    tot
    1  0.000  0.000  0.000  0.000  0.000  0.186  0.000  0.062  0.000  0.247
    2  0.000  0.000  0.000  0.000  0.000  0.186  0.000  0.062  0.000  0.247
tot    0.000  0.000  0.000  0.000  0.000  0.371  0.000  0.124  0.000  0.495
 
band    23 # energy   40.71677931 # occ.  0.00000000
 
ion      s     py     pz     px    dxy    dyz    dz2    dxz  x2-y2    tot
    1  0.001  0.008  0.000  0.023  0.053  0.000  0.472  0.000  0.018  0.575
    2  0.001  0.008  0.000  0.023  0.053  0.000  0.472  0.000  0.018  0.575
tot    0.003  0.015  0.000  0.046  0.105  0.000  0.945  0.000  0.035  1.149
 
band    24 # energy   40.90174129 # occ.  0.00000000
 
ion      s     py     pz     px    dxy    dyz    dz2    dxz  x2-y2    tot
    1  0.000  0.000  0.200  0.000  0.000  0.041  0.000  0.122  0.000  0.362
    2  0.000  0.000  0.200  0.000  0.000  0.041  0.000  0.122  0.000  0.362
tot    0.000  0.000  0.399  0.000  0.000  0.081  0.000  0.244  0.000  0.724
 

 k-point     3 :    0.16666667 0.00000000 0.00000000     weight = 0.00520833

band     1 # energy    2.17401831 # occ.  1.00000000
 
ion      s     py     pz     px    dxy    dyz    dz2    dxz  x2-y2    tot
    1  0.325  0.008  0.000  0.023  0.002  0.000  0.001  0.000  0.001  0.358
    2  0.325  0.008  0.000  0.023  0.002  0.000  0.001  0.000  0.001  0.358
tot    0.649  0.015  0.000  0.045  0.004  0.000  0.002  0.000  0.001  0.717
 
band     2 # energy    5.48488911 # occ.  1.00000000
 
ion      s     py     pz     px    dxy    dyz    dz2    dxz  x2-y2    tot
    1  0.050  0.004  0.000  0.011  0.019  0.000  0.358  0.000  0.006  0.449
    2  0.050  0.004  0.000  0.011  0.019  0.000  0.358  0.000  0.006  0.449
tot    0.101  0.008  0.000  0.023  0.038  0.000  0.716  0.000  0.013  0.898
 
band     3 # energy    6.98556789 # occ.  1.00000000
 
ion      s     py     pz     px    dxy    dyz    dz2    dxz  x2-y2    tot
    1  0.000  0.001  0.000  0.004  0.264  0.000  0.115  0.000  0.088  0.473
    2  0.000  0.001  0.000  0.004  0.264  0.000  0.115  0.000  0.088  0.473
tot    0.001  0.003  0.000  0.008  0.528  0.000  0.231  0.000  0.176  0.947
 
band     4 # energy    7.30106544 # occ.  1.00000000
 
ion      s     py     pz     px    dxy    dyz    dz2    dxz  x2-y2    tot
    1  0.000  0.000  0.057  0.000  0.000  0.098  0.000  0.294  0.000  0.450
    2  0.000  0.000  0.057  0.000  0.000  0.098  0.000  0.294  0.000  0.450
tot    0.000  0.000  0.115  0.000  0.000  0.196  0.000  0.589  0.000  0.900
 
band     5 # energy    7.57542773 # occ.  1.00000000
 
ion      s     py     pz     px    dxy    dyz    dz2    dxz  x2-y2    tot
    1  0.004  0.000  0.000  0.001  0.315  0.000  0.056  0.000  0.105  0.482
    2  0.004  0.000  0.000  0.001  0.315  0.000  0.056  0.000  0.105  0.482
tot    0.008  0.001  0.000  0.003  0.630  0.000  0.112  0.000  0.210  0.964
 
band     6 # energy    7.88005355 # occ.  1.00000000
 
ion      s     py     pz     px    dxy    dyz    dz2    dxz  x2-y2    tot
    1  0.000  0.000  0.000  0.000  0.000  0.365  0.000  0.122  0.000  0.486
    2  0.000  0.000  0.000  0.000  0.000  0.365  0.000  0.122  0.000  0.486
tot    0.000  0.000  0.000  0.000  0.000  0.730  0.000  0.243  0.000  0.973
 
band     7 # energy    7.89976823 # occ.  1.00000000
 
ion      s     py     pz     px    dxy    dyz    dz2    dxz  x2-y2    tot
    1  0.000  0.001  0.000  0.000  0.120  0.000  0.000  0.000  0.361  0.483
    2  0.000  0.001  0.000  0.000  0.120  0.000  0.000  0.000  0.361  0.483
tot    0.000  0.003  0.000  0.001  0.241  0.000  0.000  0.000  0.722  0.967
 
band     8 # energy    7.95691326 # occ.  1.00000000
 
ion      s     py     pz     px    dxy    dyz    dz2    dxz  x2-y2    tot
    1  0.001  0.000  0.000  0.001  0.113  0.000  0.333  0.000  0.038  0.486
    2  0.001  0.000  0.000  0.001  0.113  0.000  0.333  0.000  0.038  0.486
tot    0.003  0.001  0.000  0.002  0.226  0.000  0.665  0.000  0.075  0.972
 
band     9 # energy    8.09704826 # occ.  1.00000000
 
ion      s     py     pz     px    dxy    dyz    dz2    dxz  x2-y2    tot
    1  0.000  0.000  0.035  0.000  0.000  0.109  0.000  0.328  0.000  0.472
    2  0.000  0.000  0.035  0.000  0.000  0.109  0.000  0.328  0.000  0.472
tot    0.000  0.000  0.069  0.000  0.000  0.219  0.000  0.657  0.000  0.945
 
band    10 # energy    8.15486909 # occ.  1.00000000
 
ion      s     py     pz     px    dxy    dyz    dz2    dxz  x2-y2    tot
    1  0.000  0.001  0.000  0.000  0.121  0.000  0.000  0.000  0.364  0.488
    2  0.000  0.001  0.000  0.000  0.121  0.000  0.000  0.000  0.364  0.488
tot    0.000  0.003  0.000  0.001  0.243  0.000  0.000  0.000  0.729  0.976
 
band    11 # energy    9.29695859 # occ.  1.00000000
 
ion      s     py     pz     px    dxy    dyz    dz2    dxz  x2-y2    tot
    1  0.000  0.000  0.000  0.000  0.000  0.371  0.000  0.124  0.000  0.494
    2  0.000  0.000  0.000  0.000  0.000  0.371  0.000  0.124  0.000  0.494
tot    0.000  0.000  0.000  0.000  0.000  0.741  0.000  0.247  0.000  0.989
 
band    12 # energy   12.63220254 # occ.  0.00000000
 
ion      s     py     pz     px    dxy    dyz    dz2    dxz  x2-y2    tot
    1  0.000  0.000  0.235  0.000  0.000  0.041  0.000  0.123  0.000  0.399
    2  0.000  0.000  0.235  0.000  0.000  0.041  0.000  0.123  0.000  0.399
tot    0.000  0.000  0.471  0.000  0.000  0.082  0.000  0.246  0.000  0.799
 
band    13 # energy   16.52824282 # occ.  0.00000000
 
ion      s     py     pz     px    dxy    dyz    dz2    dxz  x2-y2    tot
    1  0.206  0.008  0.000  0.023  0.001  0.000  0.201  0.000  0.000  0.439
    2  0.206  0.008  0.000  0.023  0.001  0.000  0.201  0.000  0.000  0.439
tot    0.412  0.015  0.000  0.046  0.001  0.000  0.403  0.000  0.000  0.878
 
band    14 # energy   26.16847395 # occ.  0.00000000
 
ion      s     py     pz     px    dxy    dyz    dz2    dxz  x2-y2    tot
    1  0.043  0.037  0.000  0.112  0.114  0.000  0.022  0.000  0.038  0.366
    2  0.043  0.037  0.000  0.112  0.114  0.000  0.022  0.000  0.038  0.366
tot    0.086  0.075  0.000  0.224  0.228  0.000  0.044  0.000  0.076  0.733
 
band    15 # energy   29.85245399 # occ.  0.00000000
 
ion      s     py     pz     px    dxy    dyz    dz2    dxz  x2-y2    tot
    1  0.000  0.191  0.000  0.064  0.031  0.000  0.000  0.000  0.094  0.379
    2  0.000  0.191  0.000  0.064  0.031  0.000  0.000  0.000  0.094  0.379
tot    0.000  0.381  0.000  0.127  0.063  0.000  0.000  0.000  0.188  0.758
 
band    16 # energy   31.38733628 # occ.  0.00000000
 
ion      s     py     pz     px    dxy    dyz    dz2    dxz  x2-y2    tot
    1  0.023  0.005  0.000  0.016  0.141  0.000  0.048  0.000  0.047  0.279
    2  0.023  0.005  0.000  0.016  0.141  0.000  0.048  0.000  0.047  0.279
tot    0.045  0.011  0.000  0.033  0.281  0.000  0.095  0.000  0.094  0.559
 
band    17 # energy   33.29236787 # occ.  0.00000000
 
ion      s     py     pz     px    dxy    dyz    dz2    dxz  x2-y2    tot
    1  0.000  0.000  0.041  0.000  0.000  0.053  0.000  0.160  0.000  0.254
    2  0.000  0.000  0.041  0.000  0.000  0.053  0.000  0.160  0.000  0.254
tot    0.000  0.000  0.082  0.000  0.000  0.107  0.000  0.320  0.000  0.508
 
band    18 # energy   35.55804090 # occ.  0.00000000
 
ion      s     py     pz     px    dxy    dyz    dz2    dxz  x2-y2    tot
    1  0.000  0.000  0.009  0.000  0.000  0.013  0.000  0.039  0.000  0.061
    2  0.000  0.000  0.009  0.000  0.000  0.013  0.000  0.039  0.000  0.061
tot    0.000  0.000  0.018  0.000  0.000  0.026  0.000  0.079  0.000  0.123
 
band    19 # energy   36.22743839 # occ.  0.00000000
 
ion      s     py     pz     px    dxy    dyz    dz2    dxz  x2-y2    tot
    1  0.032  0.039  0.000  0.117  0.051  0.000  0.031  0.000  0.017  0.288
    2  0.032  0.039  0.000  0.117  0.051  0.000  0.031  0.000  0.017  0.288
tot    0.064  0.078  0.000  0.234  0.102  0.000  0.062  0.000  0.034  0.575
 
band    20 # energy   38.37564625 # occ.  0.00000000
 
ion      s     py     pz     px    dxy    dyz    dz2    dxz  x2-y2    tot
    1  0.037  0.040  0.000  0.120  0.000  0.000  0.108  0.000  0.000  0.306
    2  0.037  0.040  0.000  0.120  0.000  0.000  0.108  0.000  0.000  0.306
tot    0.075  0.080  0.000  0.240  0.001  0.000  0.217  0.000  0.000  0.613
 
band    21 # energy   38.95506852 # occ.  0.00000000
 
ion      s     py     pz     px    dxy    dyz    dz2    dxz  x2-y2    tot
    1  0.000  0.000  0.000  0.000  0.000  0.277  0.000  0.092  0.000  0.369
    2  0.000  0.000  0.000  0.000  0.000  0.277  0.000  0.092  0.000  0.369
tot    0.000  0.000  0.000  0.000  0.000  0.553  0.000  0.184  0.000  0.738
 
band    22 # energy   39.57752208 # occ.  0.00000000
 
ion      s     py     pz     px    dxy    dyz    dz2    dxz  x2-y2    tot
    1  0.000  0.000  0.239  0.000  0.000  0.007  0.000  0.022  0.000  0.268
    2  0.000  0.000  0.239  0.000  0.000  0.007  0.000  0.022  0.000  0.268
tot    0.000  0.000  0.477  0.000  0.000  0.015  0.000  0.044  0.000  0.536
 
band    23 # energy   40.10899686 # occ.  0.00000000
 
ion      s     py     pz     px    dxy    dyz    dz2    dxz  x2-y2    tot
    1  0.000  0.058  0.000  0.019  0.104  0.000  0.000  0.000  0.312  0.494
    2  0.000  0.058  0.000  0.019  0.104  0.000  0.000  0.000  0.312  0.494
tot    0.000  0.117  0.000  0.039  0.208  0.000  0.000  0.000  0.625  0.989
 
band    24 # energy   41.55960373 # occ.  0.00000000
 
ion      s     py     pz     px    dxy    dyz    dz2    dxz  x2-y2    tot
    1  0.000  0.225  0.000  0.075  0.027  0.000  0.000  0.000  0.080  0.407
    2  0.000  0.225  0.000  0.075  0.027  0.000  0.000  0.000  0.080  0.407
tot    0.000  0.451  0.000  0.150  0.053  0.000  0.000  0.000  0.159  0.813
 

 k-point     4 :    0.25000000 0.00000000 0.00000000     weight = 0.00520833

band     1 # energy    3.22663319 # occ.  1.00000000
 
ion      s     py     pz     px    dxy    dyz    dz2    dxz  x2-y2    tot
    1  0.281  0.015  0.000  0.044  0.014  0.000  0.005  0.000  0.005  0.363
    2  0.281  0.015  0.000  0.044  0.014  0.000  0.005  0.000  0.005  0.363
tot    0.562  0.029  0.000  0.088  0.028  0.000  0.010  0.000  0.009  0.727
 
band     2 # energy    5.76294156 # occ.  1.00000000
 
ion      s     py     pz     px    dxy    dyz    dz2    dxz  x2-y2    tot
    1  0.025  0.004  0.000  0.011  0.104  0.000  0.278  0.000  0.035  0.457
    2  0.025  0.004  0.000  0.011  0.104  0.000  0.278  0.000  0.035  0.457
tot    0.050  0.008  0.000  0.023  0.208  0.000  0.556  0.000  0.069  0.913
 
band     3 # energy    6.59361295 # occ.  1.00000000
 
ion      s     py     pz     px    dxy    dyz    dz2    dxz  x2-y2    tot
    1  0.000  0.000  0.049  0.000  0.000  0.099  0.000  0.297  0.000  0.445
    2  0.000  0.000  0.049  0.000  0.000  0.099  0.000  0.297  0.000  0.445
tot    0.000  0.000  0.098  0.000  0.000  0.198  0.000  0.594  0.000  0.891
 
band     4 # energy    6.82758993 # occ.  1.00000000
 
ion      s     py     pz     px    dxy    dyz    dz2    dxz  x2-y2    tot
    1  0.001  0.006  0.000  0.019  0.229  0.000  0.129  0.000  0.076  0.462
    2  0.001  0.006  0.000  0.019  0.229  0.000  0.129  0.000  0.076  0.462
tot    0.002  0.013  0.000  0.038  0.459  0.000  0.259  0.000  0.153  0.924
 
band     5 # energy    7.48917010 # occ.  1.00000000
 
ion      s     py     pz     px    dxy    dyz    dz2    dxz  x2-y2    tot
    1  0.010  0.001  0.000  0.004  0.251  0.000  0.128  0.000  0.084  0.478
    2  0.010  0.001  0.000  0.004  0.251  0.000  0.128  0.000  0.084  0.478
tot    0.020  0.003  0.000  0.008  0.502  0.000  0.257  0.000  0.167  0.956
 
band     6 # energy    7.67509280 # occ.  1.00000000
 
ion      s     py     pz     px    dxy    dyz    dz2    dxz  x2-y2    tot
    1  0.000  0.000  0.000  0.000  0.000  0.363  0.000  0.121  0.000  0.485
    2  0.000  0.000  0.000  0.000  0.000  0.363  0.000  0.121  0.000  0.485
tot    0.000  0.000  0.000  0.000  0.000  0.727  0.000  0.242  0.000  0.969
 
band     7 # energy    7.90179388 # occ.  1.00000000
 
ion      s     py     pz     px    dxy    dyz    dz2    dxz  x2-y2    tot
    1  0.000  0.000  0.027  0.000  0.000  0.112  0.000  0.336  0.000  0.475
    2  0.000  0.000  0.027  0.000  0.000  0.112  0.000  0.336  0.000  0.475
tot    0.000  0.000  0.054  0.000  0.000  0.224  0.000  0.672  0.000  0.950
 
band     8 # energy    8.35045831 # occ.  1.00000000
 
ion      s     py     pz     px    dxy    dyz    dz2    dxz  x2-y2    tot
    1  0.000  0.002  0.000  0.001  0.121  0.000  0.000  0.000  0.363  0.486
    2  0.000  0.002  0.000  0.001  0.121  0.000  0.000  0.000  0.363  0.486
tot    0.000  0.003  0.000  0.001  0.242  0.000  0.000  0.000  0.725  0.971
 
band     9 # energy    8.37368033 # occ.  1.00000000
 
ion      s     py     pz     px    dxy    dyz    dz2    dxz  x2-y2    tot
    1  0.005  0.002  0.000  0.005  0.101  0.000  0.338  0.000  0.034  0.485
    2  0.005  0.002  0.000  0.005  0.101  0.000  0.338  0.000  0.034  0.485
tot    0.011  0.003  0.000  0.010  0.203  0.000  0.676  0.000  0.068  0.970
 
band    10 # energy    8.54699736 # occ.  1.00000000
 
ion      s     py     pz     px    dxy    dyz    dz2    dxz  x2-y2    tot
    1  0.000  0.002  0.000  0.001  0.122  0.000  0.000  0.000  0.365  0.490
    2  0.000  0.002  0.000  0.001  0.122  0.000  0.000  0.000  0.365  0.490
tot    0.000  0.004  0.000  0.001  0.243  0.000  0.000  0.000  0.730  0.979
 
band    11 # energy    9.35674106 # occ.  1.00000000
 
ion      s     py     pz     px    dxy    dyz    dz2    dxz  x2-y2    tot