<?xml version="1.0" encoding="ISO-8859-1"?>
<modeling>
 <generator>
  <i name="program" type="string">vasp </i>
  <i name="version" type="string">6.3.2  </i>
  <i name="subversion" type="string">27Jun22 (build Aug 12 2022 00:53:59) complex                          parallel </i>
  <i name="platform" type="string">tv2STD </i>
  <i name="date" type="string">2024 12 02 </i>
  <i name="time" type="string">17:32:28 </i>
 </generator>
 <incar>
  <i type="string" name="SYSTEM">Co-hcc</i>
  <i type="int" name="ISTART">     0</i>
  <i type="string" name="PREC">Accurate      normal | accurate</i>
  <i type="string" name="ALGO">Normal     Normal, Fast, Very_Fast</i>
  <i type="logical" name="ADDGRID"> F  </i>
  <i type="int" name="ISPIN">     2</i>
  <i type="int" name="ICHARG">     2</i>
  <i type="int" name="INIWAV">     1</i>
  <i type="int" name="NELM">   100</i>
  <i type="int" name="IBRION">     2</i>
  <i name="EDIFF">      0.00000100</i>
  <i name="EDIFFG">     -0.02000000</i>
  <i type="int" name="NSW">   100</i>
  <i type="int" name="ISIF">     2</i>
  <i type="int" name="ISYM">     1</i>
  <i name="ENCUT">    425.00000000</i>
  <v name="MAGMOM">      3.00000000      3.00000000</v>
  <i type="logical" name="LREAL"> F  </i>
  <i type="int" name="ISMEAR">     0</i>
  <i name="SIGMA">      0.05000000</i>
  <i type="int" name="NWRITE">     2</i>
  <i type="logical" name="LWAVE"> F  </i>
  <i type="logical" name="LCHARG"> F  </i>
  <i type="int" name="LORBIT">    11</i>
 </incar>
 <primitive_cell>
  <structure name="primitive_cell" >
   <crystal>
    <varray name="basis" >
     <v>       1.25302268      -2.17029895       0.00000000 </v>
     <v>       1.25302268       2.17029895       0.00000000 </v>
     <v>       0.00000000       0.00000000       4.04236970 </v>
    </varray>
    <i name="volume">     21.98591372 </i>
    <varray name="rec_basis" >
     <v>       0.39903507      -0.23038301       0.00000000 </v>
     <v>       0.39903507       0.23038301       0.00000000 </v>
     <v>       0.00000000       0.00000000       0.24737965 </v>
    </varray>
   </crystal>
   <varray name="positions" >
    <v>       0.33333333       0.66666667       0.25000000 </v>
    <v>       0.66666667       0.33333333       0.75000000 </v>
   </varray>
  </structure>
  <varray name="primitive_index" >
   <v type="int" >        1 </v>
   <v type="int" >        2 </v>
  </varray>
 </primitive_cell>
 <kpoints>
  <generation param="Gamma">
   <v type="int" name="divisions">      12       12        8 </v>
   <v name="usershift">      0.00000000       0.00000000       0.00000000 </v>
   <v name="genvec1">      0.08333333      -0.00000000       0.00000000 </v>
   <v name="genvec2">     -0.00000000       0.08333333       0.00000000 </v>
   <v name="genvec3">      0.00000000       0.00000000       0.12500000 </v>
   <v name="shift">      0.00000000       0.00000000       0.00000000 </v>
  </generation>
  <varray name="kpointlist" >
   <v>       0.00000000       0.00000000       0.00000000 </v>
   <v>       0.08333333       0.00000000       0.00000000 </v>
   <v>       0.16666667       0.00000000       0.00000000 </v>
   <v>       0.25000000       0.00000000       0.00000000 </v>
   <v>       0.33333333       0.00000000       0.00000000 </v>
   <v>       0.41666667       0.00000000       0.00000000 </v>
   <v>       0.50000000       0.00000000       0.00000000 </v>
   <v>       0.08333333       0.08333333       0.00000000 </v>
   <v>       0.16666667       0.08333333       0.00000000 </v>
   <v>       0.25000000       0.08333333       0.00000000 </v>
   <v>       0.33333333       0.08333333       0.00000000 </v>
   <v>       0.41666667       0.08333333       0.00000000 </v>
   <v>       0.16666667       0.16666667       0.00000000 </v>
   <v>       0.25000000       0.16666667       0.00000000 </v>
   <v>       0.33333333       0.16666667       0.00000000 </v>
   <v>       0.41666667       0.16666667       0.00000000 </v>
   <v>       0.25000000       0.25000000       0.00000000 </v>
   <v>       0.33333333       0.25000000       0.00000000 </v>
   <v>       0.33333333       0.33333333       0.00000000 </v>
   <v>       0.00000000       0.00000000       0.12500000 </v>
   <v>       0.08333333       0.00000000       0.12500000 </v>
   <v>       0.16666667       0.00000000       0.12500000 </v>
   <v>       0.25000000       0.00000000       0.12500000 </v>
   <v>       0.33333333       0.00000000       0.12500000 </v>
   <v>       0.41666667       0.00000000       0.12500000 </v>
   <v>       0.50000000       0.00000000       0.12500000 </v>
   <v>       0.08333333       0.08333333       0.12500000 </v>
   <v>       0.16666667       0.08333333       0.12500000 </v>
   <v>       0.25000000       0.08333333       0.12500000 </v>
   <v>       0.33333333       0.08333333       0.12500000 </v>
   <v>       0.41666667       0.08333333       0.12500000 </v>
   <v>       0.16666667       0.16666667       0.12500000 </v>
   <v>       0.25000000       0.16666667       0.12500000 </v>
   <v>       0.33333333       0.16666667       0.12500000 </v>
   <v>       0.41666667       0.16666667       0.12500000 </v>
   <v>       0.25000000       0.25000000       0.12500000 </v>
   <v>       0.33333333       0.25000000       0.12500000 </v>
   <v>       0.33333333       0.33333333       0.12500000 </v>
   <v>       0.00000000       0.00000000       0.25000000 </v>
   <v>       0.08333333       0.00000000       0.25000000 </v>
   <v>       0.16666667       0.00000000       0.25000000 </v>
   <v>       0.25000000       0.00000000       0.25000000 </v>
   <v>       0.33333333       0.00000000       0.25000000 </v>
   <v>       0.41666667       0.00000000       0.25000000 </v>
   <v>       0.50000000       0.00000000       0.25000000 </v>
   <v>       0.08333333       0.08333333       0.25000000 </v>
   <v>       0.16666667       0.08333333       0.25000000 </v>
   <v>       0.25000000       0.08333333       0.25000000 </v>
   <v>       0.33333333       0.08333333       0.25000000 </v>
   <v>       0.41666667       0.08333333       0.25000000 </v>
   <v>       0.16666667       0.16666667       0.25000000 </v>
   <v>       0.25000000       0.16666667       0.25000000 </v>
   <v>       0.33333333       0.16666667       0.25000000 </v>
   <v>       0.41666667       0.16666667       0.25000000 </v>
   <v>       0.25000000       0.25000000       0.25000000 </v>
   <v>       0.33333333       0.25000000       0.25000000 </v>
   <v>       0.33333333       0.33333333       0.25000000 </v>
   <v>       0.00000000       0.00000000       0.37500000 </v>
   <v>       0.08333333       0.00000000       0.37500000 </v>
   <v>       0.16666667       0.00000000       0.37500000 </v>
   <v>       0.25000000       0.00000000       0.37500000 </v>
   <v>       0.33333333       0.00000000       0.37500000 </v>
   <v>       0.41666667       0.00000000       0.37500000 </v>
   <v>       0.50000000       0.00000000       0.37500000 </v>
   <v>       0.08333333       0.08333333       0.37500000 </v>
   <v>       0.16666667       0.08333333       0.37500000 </v>
   <v>       0.25000000       0.08333333       0.37500000 </v>
   <v>       0.33333333       0.08333333       0.37500000 </v>
   <v>       0.41666667       0.08333333       0.37500000 </v>
   <v>       0.16666667       0.16666667       0.37500000 </v>
   <v>       0.25000000       0.16666667       0.37500000 </v>
   <v>       0.33333333       0.16666667       0.37500000 </v>
   <v>       0.41666667       0.16666667       0.37500000 </v>
   <v>       0.25000000       0.25000000       0.37500000 </v>
   <v>       0.33333333       0.25000000       0.37500000 </v>
   <v>       0.33333333       0.33333333       0.37500000 </v>
   <v>       0.00000000       0.00000000       0.50000000 </v>
   <v>       0.08333333       0.00000000       0.50000000 </v>
   <v>       0.16666667       0.00000000       0.50000000 </v>
   <v>       0.25000000       0.00000000       0.50000000 </v>
   <v>       0.33333333       0.00000000       0.50000000 </v>
   <v>       0.41666667       0.00000000       0.50000000 </v>
   <v>       0.50000000       0.00000000       0.50000000 </v>
   <v>       0.08333333       0.08333333       0.50000000 </v>
   <v>       0.16666667       0.08333333       0.50000000 </v>
   <v>       0.25000000       0.08333333       0.50000000 </v>
   <v>       0.33333333       0.08333333       0.50000000 </v>
   <v>       0.41666667       0.08333333       0.50000000 </v>
   <v>       0.16666667       0.16666667       0.50000000 </v>
   <v>       0.25000000       0.16666667       0.50000000 </v>
   <v>       0.33333333       0.16666667       0.50000000 </v>
   <v>       0.41666667       0.16666667       0.50000000 </v>
   <v>       0.25000000       0.25000000       0.50000000 </v>
   <v>       0.33333333       0.25000000       0.50000000 </v>
   <v>       0.33333333       0.33333333       0.50000000 </v>
  </varray>
  <varray name="weights" >
   <v>       0.00086806 </v>
   <v>       0.00520833 </v>
   <v>       0.00520833 </v>
   <v>       0.00520833 </v>
   <v>       0.00520833 </v>
   <v>       0.00520833 </v>
   <v>       0.00260417 </v>
   <v>       0.00520833 </v>
   <v>       0.01041667 </v>
   <v>       0.01041667 </v>
   <v>       0.01041667 </v>
   <v>       0.01041667 </v>
   <v>       0.00520833 </v>
   <v>       0.01041667 </v>
   <v>       0.01041667 </v>
   <v>       0.00520833 </v>
   <v>       0.00520833 </v>
   <v>       0.01041667 </v>
   <v>       0.00173611 </v>
   <v>       0.00173611 </v>
   <v>       0.01041667 </v>
   <v>       0.01041667 </v>
   <v>       0.01041667 </v>
   <v>       0.01041667 </v>
   <v>       0.01041667 </v>
   <v>       0.00520833 </v>
   <v>       0.01041667 </v>
   <v>       0.02083333 </v>
   <v>       0.02083333 </v>
   <v>       0.02083333 </v>
   <v>       0.02083333 </v>
   <v>       0.01041667 </v>
   <v>       0.02083333 </v>
   <v>       0.02083333 </v>
   <v>       0.01041667 </v>
   <v>       0.01041667 </v>
   <v>       0.02083333 </v>
   <v>       0.00347222 </v>
   <v>       0.00173611 </v>
   <v>       0.01041667 </v>
   <v>       0.01041667 </v>
   <v>       0.01041667 </v>
   <v>       0.01041667 </v>
   <v>       0.01041667 </v>
   <v>       0.00520833 </v>
   <v>       0.01041667 </v>
   <v>       0.02083333 </v>
   <v>       0.02083333 </v>
   <v>       0.02083333 </v>
   <v>       0.02083333 </v>
   <v>       0.01041667 </v>
   <v>       0.02083333 </v>
   <v>       0.02083333 </v>
   <v>       0.01041667 </v>
   <v>       0.01041667 </v>
   <v>       0.02083333 </v>
   <v>       0.00347222 </v>
   <v>       0.00173611 </v>
   <v>       0.01041667 </v>
   <v>       0.01041667 </v>
   <v>       0.01041667 </v>
   <v>       0.01041667 </v>
   <v>       0.01041667 </v>
   <v>       0.00520833 </v>
   <v>       0.01041667 </v>
   <v>       0.02083333 </v>
   <v>       0.02083333 </v>
   <v>       0.02083333 </v>
   <v>       0.02083333 </v>
   <v>       0.01041667 </v>
   <v>       0.02083333 </v>
   <v>       0.02083333 </v>
   <v>       0.01041667 </v>
   <v>       0.01041667 </v>
   <v>       0.02083333 </v>
   <v>       0.00347222 </v>
   <v>       0.00086806 </v>
   <v>       0.00520833 </v>
   <v>       0.00520833 </v>
   <v>       0.00520833 </v>
   <v>       0.00520833 </v>
   <v>       0.00520833 </v>
   <v>       0.00260417 </v>
   <v>       0.00520833 </v>
   <v>       0.01041667 </v>
   <v>       0.01041667 </v>
   <v>       0.01041667 </v>
   <v>       0.01041667 </v>
   <v>       0.00520833 </v>
   <v>       0.01041667 </v>
   <v>       0.01041667 </v>
   <v>       0.00520833 </v>
   <v>       0.00520833 </v>
   <v>       0.01041667 </v>
   <v>       0.00173611 </v>
  </varray>
 </kpoints>
 <parameters>
  <separator name="general" >
   <i type="string" name="SYSTEM">Co-hcc</i>
   <i type="logical" name="LCOMPAT"> F  </i>
  </separator>
  <separator name="electronic" >
   <i type="string" name="PREC">accura</i>
   <i name="ENMAX">    425.00000000</i>
   <i name="ENAUG">    477.81800000</i>
   <i name="EDIFF">      0.00000100</i>
   <i type="int" name="IALGO">    38</i>
   <i type="int" name="IWAVPR">    11</i>
   <i type="int" name="NBANDS">    24</i>
   <i type="int" name="NBANDSLOW">    -1</i>
   <i type="int" name="NBANDSHIGH">    -1</i>
   <i name="NELECT">     18.00000000</i>
   <i type="int" name="TURBO">     0</i>
   <i type="int" name="IRESTART">     0</i>
   <i type="int" name="NREBOOT">     0</i>
   <i type="int" name="NMIN">     0</i>
   <i name="EREF">      0.00000000</i>
   <separator name="electronic smearing" >
    <i type="int" name="ISMEAR">     0</i>
    <i name="SIGMA">      0.05000000</i>
    <i name="KSPACING">      0.50000000</i>
    <i type="logical" name="KGAMMA"> T  </i>
    <i type="logical" name="KBLOWUP"> T  </i>
   </separator>
   <separator name="electronic projectors" >
    <i type="logical" name="LREAL"> F  </i>
    <v name="ROPT">      0.00000000</v>
    <i type="int" name="LMAXPAW">  -100</i>
    <i type="int" name="LMAXMIX">     2</i>
    <i type="logical" name="NLSPLINE"> F  </i>
   </separator>
   <separator name="electronic startup" >
    <i type="int" name="ISTART">     0</i>
    <i type="int" name="ICHARG">     2</i>
    <i type="int" name="INIWAV">     1</i>
   </separator>
   <separator name="electronic spin" >
    <i type="int" name="ISPIN">     2</i>
    <i type="logical" name="LNONCOLLINEAR"> F  </i>
    <v name="MAGMOM">      3.00000000      3.00000000</v>
    <i name="NUPDOWN">     -1.00000000</i>
    <i type="logical" name="LSORBIT"> F  </i>
    <v name="SAXIS">      0.00000000      0.00000000      1.00000000</v>
    <i type="logical" name="LSPIRAL"> F  </i>
    <v name="QSPIRAL">      0.00000000      0.00000000      0.00000000</v>
    <i type="logical" name="LZEROZ"> F  </i>
   </separator>
   <separator name="electronic exchange-correlation" >
    <i type="logical" name="LASPH"> F  </i>
    <i type="logical" name="LMETAGGA"> F  </i>
   </separator>
   <separator name="electronic convergence" >
    <i type="int" name="NELM">   100</i>
    <i type="int" name="NELMDL">    -5</i>
    <i type="int" name="NELMIN">     2</i>
    <i name="ENINI">    425.00000000</i>
    <separator name="electronic convergence detail" >
     <i type="logical" name="LDIAG"> T  </i>
     <i type="logical" name="LSUBROT"> F  </i>
     <i name="WEIMIN">      0.00100000</i>
     <i name="EBREAK">      0.00000001</i>
     <i name="DEPER">      0.30000000</i>
     <i type="int" name="NRMM">     4</i>
     <i name="TIME">      0.40000000</i>
    </separator>
   </separator>
   <separator name="electronic mixer" >
    <i name="AMIX">      0.40000000</i>
    <i name="BMIX">      1.00000000</i>
    <i name="AMIN">      0.10000000</i>
    <i name="AMIX_MAG">      1.60000000</i>
    <i name="BMIX_MAG">      1.00000000</i>
    <separator name="electronic mixer details" >
     <i type="int" name="IMIX">     4</i>
     <i type="logical" name="MIXFIRST"> F  </i>
     <i type="int" name="MAXMIX">   -45</i>
     <i name="WC">    100.00000000</i>
     <i type="int" name="INIMIX">     1</i>
     <i type="int" name="MIXPRE">     1</i>
     <i type="int" name="MREMOVE">     5</i>
    </separator>
   </separator>
   <separator name="electronic dipolcorrection" >
    <i type="logical" name="LDIPOL"> F  </i>
    <i type="logical" name="LMONO"> F  </i>
    <i type="int" name="IDIPOL">     0</i>
    <i name="EPSILON">      1.00000000</i>
    <v name="DIPOL">   -100.00000000   -100.00000000   -100.00000000</v>
    <i name="EFIELD">      0.00000000</i>
   </separator>
  </separator>
  <separator name="grids" >
   <i type="int" name="NGX">    18</i>
   <i type="int" name="NGY">    18</i>
   <i type="int" name="NGZ">    28</i>
   <i type="int" name="NGXF">    36</i>
   <i type="int" name="NGYF">    36</i>
   <i type="int" name="NGZF">    56</i>
   <i type="logical" name="ADDGRID"> F  </i>
  </separator>
  <separator name="ionic" >
   <i type="int" name="NSW">   100</i>
   <i type="int" name="IBRION">     2</i>
   <i type="int" name="MDALGO">     0</i>
   <i type="int" name="ISIF">     2</i>
   <i name="PSTRESS">      0.00000000</i>
   <i name="EDIFFG">     -0.02000000</i>
   <i type="int" name="NFREE">     1</i>
   <i name="POTIM">      0.50000000</i>
   <i name="SMASS">     -3.00000000</i>
   <i name="SCALEE">      1.00000000</i>
  </separator>
  <separator name="ionic md" >
   <i name="TEBEG">      0.00010000</i>
   <i name="TEEND">      0.00010000</i>
   <i type="int" name="NBLOCK">     1</i>
   <i type="int" name="KBLOCK">   100</i>
   <i type="int" name="NPACO">   256</i>
   <i name="APACO">     10.00000000</i>
  </separator>
  <separator name="symmetry" >
   <i type="int" name="ISYM">     1</i>
   <i name="SYMPREC">      0.00001000</i>
  </separator>
  <separator name="dos" >
   <i type="int" name="LORBIT">    11</i>
   <v name="RWIGS">     -1.00000000</v>
   <i type="int" name="NEDOS">   301</i>
   <i name="EMIN">     10.00000000</i>
   <i name="EMAX">    -10.00000000</i>
   <i name="EFERMI">      0.00000000</i>
  </separator>
  <separator name="writing" >
   <i type="int" name="NWRITE">     2</i>
   <i type="logical" name="LWAVE"> F  </i>
   <i type="logical" name="LDOWNSAMPLE"> F  </i>
   <i type="logical" name="LCHARG"> F  </i>
   <i type="logical" name="LPARD"> F  </i>
   <i type="logical" name="LVTOT"> F  </i>
   <i type="logical" name="LVHAR"> F  </i>
   <i type="logical" name="LELF"> F  </i>
   <i type="logical" name="LOPTICS"> F  </i>
   <v name="STM">      0.00000000      0.00000000      0.00000000      0.00000000      0.00000000      0.00000000      0.00000000</v>
  </separator>
  <separator name="performance" >
   <i type="int" name="NPAR">    24</i>
   <i type="int" name="NSIM">     4</i>
   <i type="int" name="NBLK">    -1</i>
   <i type="logical" name="LPLANE"> T  </i>
   <i type="logical" name="LSCALAPACK"> T  </i>
   <i type="logical" name="LSCAAWARE"> T  </i>
   <i type="logical" name="LSCALU"> F  </i>
   <i type="logical" name="LASYNC"> F  </i>
   <i type="logical" name="LORBITALREAL"> F  </i>
  </separator>
  <separator name="miscellaneous" >
   <i type="int" name="IDIOT">     3</i>
   <i type="int" name="PHON_NSTRUCT">    -1</i>
   <i type="logical" name="LMUSIC"> F  </i>
   <v name="POMASS">     58.93300000</v>
   <v name="DARWINR">      0.00000000</v>
   <v name="DARWINV">      1.00000000</v>
   <i type="logical" name="LCORR"> T  </i>
  </separator>
  <i type="logical" name="GGA_COMPAT"> T  </i>
  <i type="logical" name="LBERRY"> F  </i>
  <i type="int" name="ICORELEVEL">     0</i>
  <i type="logical" name="LDAU"> F  </i>
  <i type="int" name="I_CONSTRAINED_M">     0</i>
  <separator name="electronic exchange-correlation" >
   <i type="string" name="GGA">--</i>
   <i type="int" name="VOSKOWN">     0</i>
   <i type="logical" name="LHFCALC"> F  </i>
   <i type="string" name="PRECFOCK"></i>
   <i type="logical" name="LSYMGRAD"> F  </i>
   <i type="logical" name="LHFONE"> F  </i>
   <i type="logical" name="LRHFCALC"> F  </i>
   <i type="logical" name="LTHOMAS"> F  </i>
   <i type="logical" name="LMODELHF"> F  </i>
   <i type="logical" name="LFOCKACE"> F  </i>
   <i name="ENCUT4O">     -1.00000000</i>
   <i type="int" name="EXXOEP">     0</i>
   <i type="int" name="FOURORBIT">     0</i>
   <i name="AEXX">      0.00000000</i>
   <i name="HFALPHA">      0.00000000</i>
   <i name="MCALPHA">      0.00000000</i>
   <i name="ALDAX">      1.00000000</i>
   <i name="AGGAX">      1.00000000</i>
   <i name="ALDAC">      1.00000000</i>
   <i name="AGGAC">      1.00000000</i>
   <i type="int" name="NKREDX">     1</i>
   <i type="int" name="NKREDY">     1</i>
   <i type="int" name="NKREDZ">     1</i>
   <i type="logical" name="SHIFTRED"> F  </i>
   <i type="logical" name="ODDONLY"> F  </i>
   <i type="logical" name="EVENONLY"> F  </i>
   <i type="int" name="LMAXFOCK">     0</i>
   <i type="int" name="NMAXFOCKAE">     0</i>
   <i type="logical" name="LFOCKAEDFT"> F  </i>
   <i name="HFSCREEN">      0.00000000</i>
   <i name="HFSCREENC">      0.00000000</i>
   <i type="int" name="NBANDSGWLOW">     0</i>
  </separator>
  <separator name="vdW DFT" >
   <i type="logical" name="LUSE_VDW"> F  </i>
   <i name="Zab_VDW">     -0.84910000</i>
   <i name="PARAM1">      0.12340000</i>
   <i name="PARAM2">      1.00000000</i>
   <i name="PARAM3">      0.00000000</i>
  </separator>
  <separator name="model GW" >
   <i type="int" name="MODEL_GW">     0</i>
   <i name="MODEL_EPS0">      6.59577412</i>
   <i name="MODEL_ALPHA">      1.00000000</i>
  </separator>
  <separator name="linear response parameters" >
   <i type="logical" name="LEPSILON"> F  </i>
   <i type="logical" name="LRPA"> F  </i>
   <i type="logical" name="LNABLA"> F  </i>
   <i type="logical" name="LVEL"> F  </i>
   <i name="CSHIFT">      0.10000000</i>
   <i name="OMEGAMAX">     -1.00000000</i>
   <i name="DEG_THRESHOLD">      0.00200000</i>
   <i name="RTIME">     -0.10000000</i>
   <i name="WPLASMAI">      0.00000000</i>
   <v name="DFIELD">      0.00000000      0.00000000      0.00000000</v>
   <v name="WPLASMA">      0.00000000      0.00000000      0.00000000      0.00000000      0.00000000      0.00000000      0.00000000      0.00000000      0.00000000</v>
  </separator>
  <separator name="orbital magnetization" >
   <i type="logical" name="NUCIND"> F  </i>
   <v name="MAGPOS">      0.00000000      0.00000000      0.00000000</v>
   <i type="logical" name="LNICSALL"> T  </i>
   <i type="logical" name="ORBITALMAG"> F  </i>
   <i type="logical" name="LMAGBLOCH"> F  </i>
   <i type="logical" name="LCHIMAG"> F  </i>
   <i type="logical" name="LGAUGE"> T  </i>
   <i type="int" name="MAGATOM">     0</i>
   <v name="MAGDIPOL">      0.00000000      0.00000000      0.00000000</v>
   <v name="AVECCONST">      0.00000000      0.00000000      0.00000000</v>
  </separator>
  <separator name="response functions" >
   <i type="logical" name="LFINITE_TEMPERATURE"> F  </i>
   <i type="logical" name="LADDER"> F  </i>
   <i type="logical" name="LRPAFORCE"> F  </i>
   <i type="logical" name="LFXC"> F  </i>
   <i type="logical" name="LHARTREE"> T  </i>
   <i type="int" name="IBSE">     0</i>
   <v type="int" name="KPOINT">    -1     0     0     0</v>
   <i type="logical" name="LTCTC"> F  </i>
   <i type="logical" name="LTCTE"> F  </i>
   <i type="logical" name="LTETE"> F  </i>
   <i type="logical" name="LTRIPLET"> F  </i>
   <i type="logical" name="LFXCEPS"> F  </i>
   <i type="logical" name="LFXHEG"> F  </i>
   <i type="int" name="NATURALO">     2</i>
   <i type="logical" name="LHOLEGF"> F  </i>
   <i type="logical" name="L2ORDER"> F  </i>
   <i type="logical" name="LDMP1"> F  </i>
   <i type="logical" name="LMP2LT"> F  </i>
   <i type="logical" name="LSMP2LT"> F  </i>
   <i type="logical" name="LGWLF"> F  </i>
   <i name="ENCUTGW">     -2.00000000</i>
   <i name="ENCUTGWSOFT">     -2.00000000</i>
   <i name="ENCUTLF">     -1.00000000</i>
   <i type="logical" name="LESF_SPLINES"> F  </i>
   <i type="int" name="LMAXMP2">    -1</i>
   <i name="SCISSOR">      0.00000000</i>
   <i type="int" name="NOMEGA">     0</i>
   <i type="int" name="NOMEGAR">     0</i>
   <i type="int" name="NBANDSGW">    -1</i>
   <i type="int" name="NBANDSO">    -1</i>
   <i type="int" name="NBANDSV">    -1</i>
   <i type="int" name="NELMGW">     1</i>
   <i type="int" name="NELMHF">     1</i>
   <i type="int" name="DIM">     3</i>
   <i type="int" name="IESPILON">     4</i>
   <i type="int" name="ANTIRES">     0</i>
   <i name="OMEGAMAX">    -30.00000000</i>
   <i name="OMEGAMIN">    -30.00000000</i>
   <i name="OMEGATL">   -200.00000000</i>
   <i type="int" name="OMEGAGRID">     0</i>
   <i name="CSHIFT">     -0.10000000</i>
   <i type="logical" name="LSELFENERGY"> F  </i>
   <i type="logical" name="LSPECTRAL"> F  </i>
   <i type="logical" name="LSPECTRALGW"> F  </i>
   <i type="logical" name="LSINGLES"> F  </i>
   <i type="logical" name="LFERMIGW"> F  </i>
   <i type="logical" name="ODDONLYGW"> F  </i>
   <i type="logical" name="EVENONLYGW"> F  </i>
   <i type="int" name="NKREDLFX">     1</i>
   <i type="int" name="NKREDLFY">     1</i>
   <i type="int" name="NKREDLFZ">     1</i>
   <i type="int" name="MAXMEM">  2800</i>
   <i type="int" name="TELESCOPE">     0</i>
   <i type="int" name="NTAUPAR">    -1</i>
   <i type="int" name="NOMEGAPAR">    -1</i>
   <i name="DAMP_NEWTON">      0.80000001</i>
   <i name="LAMBDA">      1.00000000</i>
  </separator>
  <separator name="External order field" >
   <i name="OFIELD_KAPPA">      0.00000000</i>
   <v name="OFIELD_K">      0.00000000      0.00000000      0.00000000</v>
   <i name="OFIELD_Q6_NEAR">      0.00000000</i>
   <i name="OFIELD_Q6_FAR">      0.00000000</i>
   <i name="OFIELD_A">      0.00000000</i>
  </separator>
  <separator name="optional k-points parameters" >
   <i type="int" name="KPOINTS_OPT_MODE">     1</i>
   <i type="logical" name="LKPOINTS_OPT"> F  </i>
  </separator>
 </parameters>
 <atominfo>
  <atoms>       2 </atoms>
  <types>       1 </types>
  <array name="atoms" >
   <dimension dim="1">ion</dimension>
   <field type="string">element</field>
   <field type="int">atomtype</field>
   <set>
    <rc><c>Co</c><c>   1</c></rc>
    <rc><c>Co</c><c>   1</c></rc>
   </set>
  </array>
  <array name="atomtypes" >
   <dimension dim="1">type</dimension>
   <field type="int">atomspertype</field>
   <field type="string">element</field>
   <field>mass</field>
   <field>valence</field>
   <field type="string">pseudopotential</field>
   <set>
    <rc><c>   2</c><c>Co</c><c>     58.93300000</c><c>      9.00000000</c><c>  PAW_PBE Co 02Aug2007                  </c></rc>
   </set>
  </array>
 </atominfo>
 <structure name="initialpos" >
  <crystal>
   <varray name="basis" >
    <v>       1.25302268      -2.17029895       0.00000000 </v>
    <v>       1.25302268       2.17029895       0.00000000 </v>
    <v>       0.00000000       0.00000000       4.04236970 </v>
   </varray>
   <i name="volume">     21.98591372 </i>
   <varray name="rec_basis" >
    <v>       0.39903507      -0.23038301       0.00000000 </v>
    <v>       0.39903507       0.23038301       0.00000000 </v>
    <v>       0.00000000       0.00000000       0.24737965 </v>
   </varray>
  </crystal>
  <varray name="positions" >
   <v>       0.33333333       0.66666667       0.25000000 </v>
   <v>       0.66666667       0.33333333       0.75000000 </v>
  </varray>
 </structure>
 <calculation>
  <scstep>
   <time name="dav">    0.75    0.75</time>
   <time name="total">    0.76    0.77</time>
   <energy>
    <i name="alphaZ">     77.06332598 </i>
    <i name="ewald">  -1515.00418629 </i>
    <i name="hartreedc">   -302.82587478 </i>
    <i name="XCdc">     35.54468438 </i>
    <i name="pawpsdc">   1439.98163886 </i>
    <i name="pawaedc">  -1545.88690193 </i>
    <i name="eentropy">     -0.00300106 </i>
    <i name="bandstr">    187.95224204 </i>
    <i name="atom">   1626.72322989 </i>
    <i name="e_fr_energy">      3.54515710 </i>
    <i name="e_wo_entrp">      3.54815816 </i>
    <i name="e_0_energy">      3.54665763 </i>
   </energy>
  </scstep>
  <scstep>
   <time name="dav">    1.03    1.03</time>
   <time name="total">    1.03    1.03</time>
   <energy>
    <i name="e_fr_energy">    -15.55479517 </i>
    <i name="e_wo_entrp">    -15.55287953 </i>
    <i name="e_0_energy">    -15.55383735 </i>
   </energy>
  </scstep>
  <scstep>
   <time name="dav">    1.18    1.19</time>
   <time name="total">    1.18    1.19</time>
   <energy>
    <i name="e_fr_energy">    -15.67114360 </i>
    <i name="e_wo_entrp">    -15.66929194 </i>
    <i name="e_0_energy">    -15.67021777 </i>
   </energy>
  </scstep>
  <scstep>
   <time name="dav">    1.39    1.40</time>
   <time name="total">    1.40    1.40</time>
   <energy>
    <i name="e_fr_energy">    -15.67177341 </i>
    <i name="e_wo_entrp">    -15.66992162 </i>
    <i name="e_0_energy">    -15.67084751 </i>
   </energy>
  </scstep>
  <scstep>
   <time name="dav">    1.31    1.32</time>
   <time name="total">    1.35    1.35</time>
   <energy>
    <i name="e_fr_energy">    -15.67177443 </i>
    <i name="e_wo_entrp">    -15.66992260 </i>
    <i name="e_0_energy">    -15.67084852 </i>
   </energy>
  </scstep>
  <scstep>
   <time name="dav">    1.72    1.73</time>
   <time name="total">    1.76    1.77</time>
   <energy>
    <i name="e_fr_energy">    -14.49747812 </i>
    <i name="e_wo_entrp">    -14.49572097 </i>
    <i name="e_0_energy">    -14.49659955 </i>
   </energy>
  </scstep>
  <scstep>
   <time name="dav">    1.73    1.74</time>
   <time name="total">    1.78    1.79</time>
   <energy>
    <i name="e_fr_energy">    -14.10271389 </i>
    <i name="e_wo_entrp">    -14.10066121 </i>
    <i name="e_0_energy">    -14.10168755 </i>
   </energy>
  </scstep>
  <scstep>
   <time name="dav">    1.72    1.73</time>
   <time name="total">    1.77    1.78</time>
   <energy>
    <i name="e_fr_energy">    -14.07835377 </i>
    <i name="e_wo_entrp">    -14.07619565 </i>
    <i name="e_0_energy">    -14.07727471 </i>
   </energy>
  </scstep>
  <scstep>
   <time name="dav">    2.05    2.06</time>
   <time name="total">    2.10    2.11</time>
   <energy>
    <i name="e_fr_energy">    -14.06463304 </i>
    <i name="e_wo_entrp">    -14.06230510 </i>
    <i name="e_0_energy">    -14.06346907 </i>
   </energy>
  </scstep>
  <scstep>
   <time name="dav">    2.07    2.08</time>
   <time name="total">    2.11    2.12</time>
   <energy>
    <i name="e_fr_energy">    -14.06358377 </i>
    <i name="e_wo_entrp">    -14.06120645 </i>
    <i name="e_0_energy">    -14.06239511 </i>
   </energy>
  </scstep>
  <scstep>
   <time name="dav">    1.67    1.68</time>
   <time name="total">    1.71    1.72</time>
   <energy>
    <i name="e_fr_energy">    -14.06359320 </i>
    <i name="e_wo_entrp">    -14.06126264 </i>
    <i name="e_0_energy">    -14.06242792 </i>
   </energy>
  </scstep>
  <scstep>
   <time name="dav">    1.13    1.14</time>
   <time name="total">    1.18    1.18</time>
   <energy>
    <i name="e_fr_energy">    -14.06359027 </i>
    <i name="e_wo_entrp">    -14.06126268 </i>
    <i name="e_0_energy">    -14.06242647 </i>
   </energy>
  </scstep>
  <scstep>
   <time name="dav">    1.92    1.93</time>
   <time name="total">    1.93    1.94</time>
   <energy>
    <i name="alphaZ">     77.06332598 </i>
    <i name="ewald">  -1515.00418629 </i>
    <i name="hartreedc">   -267.45960444 </i>
    <i name="XCdc">     32.78566650 </i>
    <i name="pawpsdc">   1792.09033756 </i>
    <i name="pawaedc">  -1897.98896149 </i>
    <i name="eentropy">     -0.00232145 </i>
    <i name="bandstr">    137.72892376 </i>
    <i name="atom">   1626.72322989 </i>
    <i name="e_fr_energy">    -14.06358999 </i>
    <i name="e_wo_entrp">    -14.06126853 </i>
    <i name="e_0_energy">    -14.06242926 </i>
   </energy>
  </scstep>
  <structure>
   <crystal>
    <varray name="basis" >
     <v>       1.25302268      -2.17029895       0.00000000 </v>
     <v>       1.25302268       2.17029895       0.00000000 </v>
     <v>       0.00000000       0.00000000       4.04236970 </v>
    </varray>
    <i name="volume">     21.98591372 </i>
    <varray name="rec_basis" >
     <v>       0.39903507      -0.23038301       0.00000000 </v>
     <v>       0.39903507       0.23038301       0.00000000 </v>
     <v>       0.00000000       0.00000000       0.24737965 </v>
    </varray>
   </crystal>
   <varray name="positions" >
    <v>       0.33333333       0.66666667       0.25000000 </v>
    <v>       0.66666667       0.33333333       0.75000000 </v>
   </varray>
  </structure>
  <varray name="forces" >
   <v>      -0.00000000      -0.00000000       0.00000000 </v>
   <v>       0.00000000       0.00000000      -0.00000000 </v>
  </varray>
  <varray name="stress" >
   <v>     -32.47235109      -0.00000000       0.00000000 </v>
   <v>      -0.00000000     -32.47235109       0.00000000 </v>
   <v>       0.00000000      -0.00000000     -33.95159497 </v>
  </varray>
  <energy>
   <i name="e_fr_energy">    -14.06358999 </i>
   <i name="e_wo_entrp">    -14.06126853 </i>
   <i name="e_0_energy">    -14.06242926 </i>
  </energy>
  <time name="totalsc">   20.32   20.45</time>
  <eigenvalues>
   <array>
    <dimension dim="1">band</dimension>
    <dimension dim="2">kpoint</dimension>
    <dimension dim="3">spin</dimension>
    <field>eigene</field>
    <field>occ</field>
    <set>
     <set comment="spin 1">
      <set comment="kpoint 1">
       <r>    1.2384    1.0000 </r>
       <r>    4.9928    1.0000 </r>
       <r>    7.4704    1.0000 </r>
       <r>    7.4775    1.0000 </r>
       <r>    7.4775    1.0000 </r>
       <r>    7.7842    1.0000 </r>
       <r>    7.7842    1.0000 </r>
       <r>    8.1194    1.0000 </r>
       <r>    8.1194    1.0000 </r>
       <r>    9.2045    1.0000 </r>
       <r>    9.2045    1.0000 </r>
       <r>   10.0330    0.4791 </r>
       <r>   16.3315    0.0000 </r>
       <r>   31.9018    0.0000 </r>
       <r>   34.3068    0.0000 </r>
       <r>   34.3068    0.0000 </r>
       <r>   34.9788    0.0000 </r>
       <r>   35.4447    0.0000 </r>
       <r>   35.6767    0.0000 </r>
       <r>   35.6767    0.0000 </r>
       <r>   40.3282    0.0000 </r>
       <r>   40.3282    0.0000 </r>
       <r>   41.1452    0.0000 </r>
       <r>   41.7175    0.0000 </r>
      </set>
      <set comment="kpoint 2">
       <r>    1.4787    1.0000 </r>
       <r>    5.1347    1.0000 </r>
       <r>    7.2515    1.0000 </r>
       <r>    7.5881    1.0000 </r>
       <r>    7.6596    1.0000 </r>
       <r>    7.7410    1.0000 </r>
       <r>    7.8819    1.0000 </r>
       <r>    7.9765    1.0000 </r>
       <r>    8.0504    1.0000 </r>
       <r>    8.4782    1.0000 </r>
       <r>    9.2340    1.0000 </r>
       <r>   11.0680    0.0000 </r>
       <r>   16.3754    0.0000 </r>
       <r>   29.9858    0.0000 </r>
       <r>   32.2188    0.0000 </r>
       <r>   32.3145    0.0000 </r>
       <r>   35.4544    0.0000 </r>
       <r>   35.8230    0.0000 </r>
       <r>   37.2096    0.0000 </r>
       <r>   37.9982    0.0000 </r>
       <r>   38.7624    0.0000 </r>
       <r>   39.7937    0.0000 </r>
       <r>   40.7168    0.0000 </r>
       <r>   40.9017    0.0000 </r>
      </set>
      <set comment="kpoint 3">
       <r>    2.1740    1.0000 </r>
       <r>    5.4849    1.0000 </r>
       <r>    6.9856    1.0000 </r>
       <r>    7.3011    1.0000 </r>
       <r>    7.5754    1.0000 </r>
       <r>    7.8801    1.0000 </r>
       <r>    7.8998    1.0000 </r>
       <r>    7.9569    1.0000 </r>
       <r>    8.0970    1.0000 </r>
       <r>    8.1549    1.0000 </r>
       <r>    9.2970    1.0000 </r>
       <r>   12.6322    0.0000 </r>
       <r>   16.5282    0.0000 </r>
       <r>   26.1685    0.0000 </r>
       <r>   29.8525    0.0000 </r>
       <r>   31.3873    0.0000 </r>
       <r>   33.2924    0.0000 </r>
       <r>   35.5580    0.0000 </r>
       <r>   36.2274    0.0000 </r>
       <r>   38.3756    0.0000 </r>
       <r>   38.9551    0.0000 </r>
       <r>   39.5775    0.0000 </r>
       <r>   40.1090    0.0000 </r>
       <r>   41.5596    0.0000 </r>
      </set>
      <set comment="kpoint 4">
       <r>    3.2266    1.0000 </r>
       <r>    5.7629    1.0000 </r>
       <r>    6.5936    1.0000 </r>
       <r>    6.8276    1.0000 </r>
       <r>    7.4892    1.0000 </r>
       <r>    7.6751    1.0000 </r>
       <r>    7.9018    1.0000 </r>
       <r>    8.3505    1.0000 </r>
       <r>    8.3737    1.0000 </r>
       <r>    8.5470    1.0000 </r>
       <r>    9.3567    1.0000 </r>
       <r>   14.4061    0.0000 </r>
       <r>   16.8229    0.0000 </r>
       <r>   22.4807    0.0000 </r>
       <r>   27.8011    0.0000 </r>
       <r>   29.9534    0.0000 </r>
       <r>   30.1804    0.0000 </r>
       <r>   33.8987    0.0000 </r>
       <r>   34.5320    0.0000 </r>
       <r>   38.0894    0.0000 </r>
       <r>   38.2772    0.0000 </r>
       <r>   39.0498    0.0000 </r>
       <r>   40.1672    0.0000 </r>
       <r>   43.0611    0.0000 </r>
      </set>
      <set comment="kpoint 5">
       <r>    4.3742    1.0000 </r>
       <r>    5.6953    1.0000 </r>
       <r>    6.0772    1.0000 </r>
       <r>    6.9444    1.0000 </r>
       <r>    7.4905    1.0000 </r>
       <r>    7.6126    1.0000 </r>
       <r>    7.7317    1.0000 </r>
       <r>    8.8298    1.0000 </r>
       <r>    8.9719    1.0000 </r>
       <r>    9.0433    1.0000 </r>
       <r>    9.3980    1.0000 </r>
       <r>   16.3449    0.0000 </r>
       <r>   16.9092    0.0000 </r>
       <r>   19.6319    0.0000 </r>
       <r>   26.1761    0.0000 </r>
       <r>   26.8964    0.0000 </r>
       <r>   27.9063    0.0000 </r>
       <r>   32.4398    0.0000 </r>
       <r>   33.4043    0.0000 </r>
       <r>   36.3215    0.0000 </r>
       <r>   37.8124    0.0000 </r>
       <r>   39.8038    0.0000 </r>
       <r>   41.9419    0.0000 </r>
       <r>   44.1481    0.0000 </r>
      </set>
      <set comment="kpoint 6">
       <r>    5.1220    1.0000 </r>
       <r>    5.5132    1.0000 </r>
       <r>    5.7676    1.0000 </r>
       <r>    7.3125    1.0000 </r>
       <r>    7.3644    1.0000 </r>
       <r>    7.6121    1.0000 </r>
       <r>    7.8110    1.0000 </r>
       <r>    9.1874    1.0000 </r>
       <r>    9.3231    1.0000 </r>
       <r>    9.4203    1.0000 </r>
       <r>   10.1481    0.0005 </r>
       <r>   15.0376    0.0000 </r>
       <r>   18.3539    0.0000 </r>
       <r>   19.5673    0.0000 </r>
       <r>   24.2284    0.0000 </r>
       <r>   25.1093    0.0000 </r>
       <r>   25.2863    0.0000 </r>
       <r>   31.9556    0.0000 </r>
       <r>   32.6394    0.0000 </r>
       <r>   35.1753    0.0000 </r>
       <r>   37.5460    0.0000 </r>
       <r>   40.2728    0.0000 </r>
       <r>   44.3401    0.0000 </r>
       <r>   44.7207    0.0000 </r>
      </set>
      <set comment="kpoint 7">
       <r>    5.3680    1.0000 </r>
       <r>    5.3813    1.0000 </r>
       <r>    5.6648    1.0000 </r>
       <r>    7.3198    1.0000 </r>
       <r>    7.5599    1.0000 </r>
       <r>    7.5690    1.0000 </r>
       <r>    7.8854    1.0000 </r>
       <r>    9.3167    1.0000 </r>
       <r>    9.4271    1.0000 </r>
       <r>    9.4650    1.0000 </r>
       <r>   11.3163    0.0000 </r>
       <r>   13.2949    0.0000 </r>
       <r>   19.6687    0.0000 </r>
       <r>   20.2987    0.0000 </r>
       <r>   22.6965    0.0000 </r>
       <r>   23.8646    0.0000 </r>
       <r>   24.7339    0.0000 </r>
       <r>   31.8374    0.0000 </r>
       <r>   32.3742    0.0000 </r>
       <r>   34.7775    0.0000 </r>
       <r>   37.4594    0.0000 </r>
       <r>   40.4480    0.0000 </r>
       <r>   44.8750    0.0000 </r>
       <r>   46.6200    0.0000 </r>
      </set>
      <set comment="kpoint 8">
       <r>    1.9473    1.0000 </r>
       <r>    5.3865    1.0000 </r>
       <r>    7.0415    1.0000 </r>
       <r>    7.5403    1.0000 </r>
       <r>    7.6393    1.0000 </r>
       <r>    7.8130    1.0000 </r>
       <r>    7.8135    1.0000 </r>
       <r>    7.8546    1.0000 </r>
       <r>    8.0977    1.0000 </r>
       <r>    8.2126    1.0000 </r>
       <r>    9.2709    1.0000 </r>
       <r>   12.1921    0.0000 </r>
       <r>   16.4756    0.0000 </r>
       <r>   27.9171    0.0000 </r>
       <r>   28.5967    0.0000 </r>
       <r>   33.8471    0.0000 </r>
       <r>   34.8184    0.0000 </r>
       <r>   34.9915    0.0000 </r>
       <r>   35.0853    0.0000 </r>
       <r>   38.1679    0.0000 </r>
       <r>   38.9718    0.0000 </r>
       <r>   39.5284    0.0000 </r>
       <r>   41.7366    0.0000 </r>
       <r>   42.1720    0.0000 </r>
      </set>
      <set comment="kpoint 9">
       <r>    2.8298    1.0000 </r>
       <r>    5.7442    1.0000 </r>
       <r>    6.7783    1.0000 </r>
       <r>    6.8551    1.0000 </r>
       <r>    7.5255    1.0000 </r>
       <r>    7.6386    1.0000 </r>
       <r>    8.0590    1.0000 </r>
       <r>    8.0600    1.0000 </r>
       <r>    8.2244    1.0000 </r>
       <r>    8.5019    1.0000 </r>
       <r>    9.3165    1.0000 </r>
       <r>   13.7649    0.0000 </r>
       <r>   16.7200    0.0000 </r>
       <r>   24.3669    0.0000 </r>
       <r>   26.5635    0.0000 </r>
       <r>   31.6502    0.0000 </r>
       <r>   32.6014    0.0000 </r>
       <r>   33.6883    0.0000 </r>
       <r>   35.1991    0.0000 </r>
       <r>   36.4872    0.0000 </r>
       <r>   38.4162    0.0000 </r>
       <r>   40.1683    0.0000 </r>
       <r>   41.7427    0.0000 </r>
       <r>   42.2018    0.0000 </r>
      </set>
      <set comment="kpoint 10">
       <r>    3.9671    1.0000 </r>
       <r>    5.8584    1.0000 </r>
       <r>    6.2893    1.0000 </r>
       <r>    6.7152    1.0000 </r>
       <r>    7.4570    1.0000 </r>
       <r>    7.5409    1.0000 </r>
       <r>    7.8702    1.0000 </r>
       <r>    8.4492    1.0000 </r>
       <r>    8.7107    1.0000 </r>
       <r>    9.0534    1.0000 </r>
       <r>    9.3550    1.0000 </r>
       <r>   15.5838    0.0000 </r>
       <r>   17.0908    0.0000 </r>
       <r>   20.9332    0.0000 </r>
       <r>   25.0402    0.0000 </r>
       <r>   28.4974    0.0000 </r>
       <r>   29.8866    0.0000 </r>
       <r>   32.4372    0.0000 </r>
       <r>   34.4621    0.0000 </r>
       <r>   34.8989    0.0000 </r>
       <r>   39.0686    0.0000 </r>
       <r>   41.6058    0.0000 </r>
       <r>   41.8557    0.0000 </r>
       <r>   42.8737    0.0000 </r>
      </set>
      <set comment="kpoint 11">
       <r>    4.9628    1.0000 </r>
       <r>    5.6882    1.0000 </r>
       <r>    5.9052    1.0000 </r>
       <r>    6.9521    1.0000 </r>
       <r>    7.3389    1.0000 </r>
       <r>    7.6846    1.0000 </r>
       <r>    7.7299    1.0000 </r>
       <r>    8.9352    1.0000 </r>
       <r>    9.1254    1.0000 </r>
       <r>    9.3791    1.0000 </r>
       <r>    9.8458    1.0000 </r>
       <r>   16.3878    0.0000 </r>
       <r>   17.5650    0.0000 </r>
       <r>   19.3281    0.0000 </r>
       <r>   23.8620    0.0000 </r>
       <r>   25.6278    0.0000 </r>
       <r>   26.9198    0.0000 </r>
       <r>   31.5319    0.0000 </r>
       <r>   33.8012    0.0000 </r>
       <r>   33.8731    0.0000 </r>
       <r>   39.1037    0.0000 </r>
       <r>   41.9423    0.0000 </r>
       <r>   43.4785    0.0000 </r>
       <r>   44.4920    0.0000 </r>
      </set>
      <set comment="kpoint 12">
       <r>    5.3991    1.0000 </r>
       <r>    5.5320    1.0000 </r>
       <r>    5.7128    1.0000 </r>
       <r>    7.2913    1.0000 </r>
       <r>    7.3194    1.0000 </r>
       <r>    7.5621    1.0000 </r>
       <r>    7.8815    1.0000 </r>
       <r>    9.2803    1.0000 </r>
       <r>    9.3494    1.0000 </r>
       <r>    9.3898    1.0000 </r>
       <r>   11.1342    0.0000 </r>
       <r>   14.0635    0.0000 </r>
       <r>   19.4672    0.0000 </r>
       <r>   20.1965    0.0000 </r>
       <r>   23.0827    0.0000 </r>
       <r>   23.2867    0.0000 </r>
       <r>   24.6782    0.0000 </r>
       <r>   31.0616    0.0000 </r>
       <r>   33.2196    0.0000 </r>
       <r>   33.5779    0.0000 </r>
       <r>   38.9880    0.0000 </r>
       <r>   42.1522    0.0000 </r>
       <r>   44.8980    0.0000 </r>
       <r>   45.9195    0.0000 </r>
      </set>
      <set comment="kpoint 13">
       <r>    3.8230    1.0000 </r>
       <r>    6.0332    1.0000 </r>
       <r>    6.4011    1.0000 </r>
       <r>    6.4941    1.0000 </r>
       <r>    7.3898    1.0000 </r>
       <r>    7.5367    1.0000 </r>
       <r>    7.9596    1.0000 </r>
       <r>    8.2223    1.0000 </r>
       <r>    8.7001    1.0000 </r>
       <r>    9.0738    1.0000 </r>
       <r>    9.3182    1.0000 </r>
       <r>   15.3261    0.0000 </r>
       <r>   17.1249    0.0000 </r>
       <r>   22.6531    0.0000 </r>
       <r>   23.0831    0.0000 </r>
       <r>   30.0466    0.0000 </r>
       <r>   30.8149    0.0000 </r>
       <r>   31.8934    0.0000 </r>
       <r>   32.6447    0.0000 </r>
       <r>   37.3155    0.0000 </r>
       <r>   39.4588    0.0000 </r>
       <r>   39.8415    0.0000 </r>
       <r>   43.3559    0.0000 </r>
       <r>   44.5973    0.0000 </r>
      </set>
      <set comment="kpoint 14">
       <r>    4.9079    1.0000 </r>
       <r>    6.0172    1.0000 </r>
       <r>    6.0428    1.0000 </r>
       <r>    6.4740    1.0000 </r>
       <r>    7.2401    1.0000 </r>
       <r>    7.6790    1.0000 </r>
       <r>    7.7747    1.0000 </r>
       <r>    8.5203    1.0000 </r>
       <r>    9.1278    1.0000 </r>
       <r>    9.3160    1.0000 </r>
       <r>    9.8642    1.0000 </r>
       <r>   17.1682    0.0000 </r>
       <r>   17.5178    0.0000 </r>
       <r>   19.8274    0.0000 </r>
       <r>   21.6956    0.0000 </r>
       <r>   27.3836    0.0000 </r>
       <r>   28.8703    0.0000 </r>
       <r>   29.4558    0.0000 </r>
       <r>   31.3533    0.0000 </r>
       <r>   37.4639    0.0000 </r>
       <r>   40.8108    0.0000 </r>
       <r>   42.1776    0.0000 </r>
       <r>   43.9776    0.0000 </r>
       <r>   44.5531    0.0000 </r>
      </set>
      <set comment="kpoint 15">
       <r>    5.5821    1.0000 </r>
       <r>    5.8207    1.0000 </r>
       <r>    5.8227    1.0000 </r>
       <r>    6.7884    1.0000 </r>
       <r>    7.1989    1.0000 </r>
       <r>    7.5744    1.0000 </r>
       <r>    7.8758    1.0000 </r>
       <r>    8.9134    1.0000 </r>
       <r>    9.3133    1.0000 </r>
       <r>    9.3400    1.0000 </r>
       <r>   11.0417    0.0000 </r>
       <r>   15.7244    0.0000 </r>
       <r>   19.1705    0.0000 </r>
       <r>   19.7833    0.0000 </r>
       <r>   20.9433    0.0000 </r>
       <r>   24.7138    0.0000 </r>
       <r>   25.9997    0.0000 </r>
       <r>   28.8114    0.0000 </r>
       <r>   30.6058    0.0000 </r>
       <r>   37.1237    0.0000 </r>
       <r>   41.5988    0.0000 </r>
       <r>   44.2510    0.0000 </r>
       <r>   45.4845    0.0000 </r>
       <r>   45.6152    0.0000 </r>
      </set>
      <set comment="kpoint 16">
       <r>    5.7285    1.0000 </r>
       <r>    5.7451    1.0000 </r>
       <r>    5.7462    1.0000 </r>
       <r>    7.0082    1.0000 </r>
       <r>    7.2150    1.0000 </r>
       <r>    7.4706    1.0000 </r>
       <r>    7.9596    1.0000 </r>
       <r>    9.1786    1.0000 </r>
       <r>    9.3121    1.0000 </r>
       <r>    9.3196    1.0000 </r>
       <r>   12.3264    0.0000 </r>
       <r>   13.8582    0.0000 </r>
       <r>   20.2889    0.0000 </r>
       <r>   20.5962    0.0000 </r>
       <r>   20.9863    0.0000 </r>
       <r>   23.0636    0.0000 </r>
       <r>   24.5141    0.0000 </r>
       <r>   28.5995    0.0000 </r>
       <r>   30.3416    0.0000 </r>
       <r>   36.9902    0.0000 </r>
       <r>   41.7463    0.0000 </r>
       <r>   45.0716    0.0000 </r>
       <r>   45.1382    0.0000 </r>
       <r>   46.5894    0.0000 </r>
      </set>
      <set comment="kpoint 17">
       <r>    5.7143    1.0000 </r>
       <r>    5.8826    1.0000 </r>
       <r>    6.2108    1.0000 </r>
       <r>    6.2661    1.0000 </r>
       <r>    7.1374    1.0000 </r>
       <r>    7.5892    1.0000 </r>
       <r>    7.8809    1.0000 </r>
       <r>    8.6942    1.0000 </r>
       <r>    9.2741    1.0000 </r>
       <r>    9.3463    1.0000 </r>
       <r>   11.0435    0.0000 </r>
       <r>   17.5040    0.0000 </r>
       <r>   18.2203    0.0000 </r>
       <r>   19.0530    0.0000 </r>
       <r>   20.3645    0.0000 </r>
       <r>   26.5298    0.0000 </r>
       <r>   26.7047    0.0000 </r>
       <r>   27.6389    0.0000 </r>
       <r>   28.5150    0.0000 </r>
       <r>   40.4733    0.0000 </r>
       <r>   42.2338    0.0000 </r>
       <r>   42.7953    0.0000 </r>
       <r>   45.1580    0.0000 </r>
       <r>   46.8201    0.0000 </r>
      </set>
      <set comment="kpoint 18">
       <r>    5.8066    1.0000 </r>
       <r>    5.9883    1.0000 </r>
       <r>    6.0814    1.0000 </r>
       <r>    6.5769    1.0000 </r>
       <r>    7.1567    1.0000 </r>
       <r>    7.3970    1.0000 </r>
       <r>    8.0432    1.0000 </r>
       <r>    8.9594    1.0000 </r>
       <r>    9.2493    1.0000 </r>
       <r>    9.2937    1.0000 </r>
       <r>   12.7073    0.0000 </r>
       <r>   15.2577    0.0000 </r>
       <r>   17.5832    0.0000 </r>
       <r>   21.0699    0.0000 </r>
       <r>   21.4351    0.0000 </r>
       <r>   24.0874    0.0000 </r>
       <r>   25.4681    0.0000 </r>
       <r>   26.2746    0.0000 </r>
       <r>   27.7283    0.0000 </r>
       <r>   40.8811    0.0000 </r>
       <r>   44.3874    0.0000 </r>
       <r>   44.6384    0.0000 </r>
       <r>   46.2050    0.0000 </r>
       <r>   46.9720    0.0000 </r>
      </set>
      <set comment="kpoint 19">
       <r>    5.8118    1.0000 </r>
       <r>    6.1775    1.0000 </r>
       <r>    6.1775    1.0000 </r>
       <r>    6.4608    1.0000 </r>
       <r>    7.2322    1.0000 </r>
       <r>    7.2322    1.0000 </r>
       <r>    8.1378    1.0000 </r>
       <r>    9.1004    1.0000 </r>
       <r>    9.1004    1.0000 </r>
       <r>    9.2238    1.0000 </r>
       <r>   14.4594    0.0000 </r>
       <r>   15.2478    0.0000 </r>
       <r>   15.2478    0.0000 </r>
       <r>   22.3056    0.0000 </r>
       <r>   23.0406    0.0000 </r>
       <r>   23.0406    0.0000 </r>
       <r>   24.9298    0.0000 </r>
       <r>   25.7943    0.0000 </r>
       <r>   25.7943    0.0000 </r>
       <r>   43.4422    0.0000 </r>
       <r>   45.3911    0.0000 </r>
       <r>   45.3911    0.0000 </r>
       <r>   46.9744    0.0000 </r>
       <r>   46.9744    0.0000 </r>
      </set>
      <set comment="kpoint 20">
       <r>    1.3950    1.0000 </r>
       <r>    4.9623    1.0000 </r>
       <r>    7.4306    1.0000 </r>
       <r>    7.4357    1.0000 </r>
       <r>    7.4357    1.0000 </r>
       <r>    7.7421    1.0000 </r>
       <r>    7.7421    1.0000 </r>
       <r>    8.2160    1.0000 </r>
       <r>    8.2160    1.0000 </r>
       <r>    9.1965    1.0000 </r>
       <r>    9.1965    1.0000 </r>
       <r>    9.4104    1.0000 </r>
       <r>   17.2645    0.0000 </r>
       <r>   31.8500    0.0000 </r>
       <r>   34.1406    0.0000 </r>
       <r>   34.4497    0.0000 </r>
       <r>   34.4497    0.0000 </r>
       <r>   34.6665    0.0000 </r>
       <r>   35.7285    0.0000 </r>
       <r>   35.7285    0.0000 </r>
       <r>   39.9295    0.0000 </r>
       <r>   39.9295    0.0000 </r>
       <r>   41.5258    0.0000 </r>
       <r>   42.0550    0.0000 </r>
      </set>
      <set comment="kpoint 21">
       <r>    1.6330    1.0000 </r>
       <r>    5.1126    1.0000 </r>
       <r>    7.2487    1.0000 </r>
       <r>    7.5342    1.0000 </r>
       <r>    7.5522    1.0000 </r>
       <r>    7.6390    1.0000 </r>
       <r>    7.8348    1.0000 </r>
       <r>    8.1065    1.0000 </r>
       <r>    8.1663    1.0000 </r>
       <r>    8.3929    1.0000 </r>
       <r>    9.2217    1.0000 </r>
       <r>   10.5203    0.0000 </r>
       <r>   17.3579    0.0000 </r>
       <r>   30.0710    0.0000 </r>
       <r>   32.2986    0.0000 </r>
       <r>   32.3705    0.0000 </r>
       <r>   34.1659    0.0000 </r>
       <r>   35.1546    0.0000 </r>
       <r>   37.0804    0.0000 </r>
       <r>   37.9363    0.0000 </r>
       <r>   39.1292    0.0000 </r>
       <r>   39.3887    0.0000 </r>
       <r>   39.9129    0.0000 </r>
       <r>   41.7769    0.0000 </r>
      </set>
      <set comment="kpoint 22">
       <r>    2.3194    1.0000 </r>
       <r>    5.4879    1.0000 </r>
       <r>    7.0015    1.0000 </r>
       <r>    7.1410    1.0000 </r>
       <r>    7.5221    1.0000 </r>
       <r>    7.7434    1.0000 </r>
       <r>    7.8776    1.0000 </r>
       <r>    8.0463    1.0000 </r>
       <r>    8.1643    1.0000 </r>
       <r>    8.2479    1.0000 </r>
       <r>    9.2753    1.0000 </r>
       <r>   11.8602    0.0000 </r>
       <r>   17.6699    0.0000 </r>
       <r>   26.2981    0.0000 </r>
       <r>   30.0316    0.0000 </r>
       <r>   31.1168    0.0000 </r>
       <r>   32.8460    0.0000 </r>
       <r>   34.3918    0.0000 </r>
       <r>   36.6180    0.0000 </r>
       <r>   37.5453    0.0000 </r>
       <r>   38.3896    0.0000 </r>
       <r>   39.3297    0.0000 </r>
       <r>   40.6824    0.0000 </r>
       <r>   42.6789    0.0000 </r>
      </set>
      <set comment="kpoint 23">
       <r>    3.3481    1.0000 </r>
       <r>    5.7948    1.0000 </r>
       <r>    6.5103    1.0000 </r>
       <r>    6.8574    1.0000 </r>
       <r>    7.3958    1.0000 </r>
       <r>    7.6950    1.0000 </r>
       <r>    7.9129    1.0000 </r>
       <r>    8.3842    1.0000 </r>
       <r>    8.4381    1.0000 </r>
       <r>    8.5142    1.0000 </r>
       <r>    9.3259    1.0000 </r>
       <r>   13.2624    0.0000 </r>
       <r>   18.2579    0.0000 </r>
       <r>   22.6237    0.0000 </r>
       <r>   28.0046    0.0000 </r>
       <r>   28.6261    0.0000 </r>
       <r>   31.0786    0.0000 </r>
       <r>   33.9247    0.0000 </r>
       <r>   34.4872    0.0000 </r>
       <r>   36.1148    0.0000 </r>
       <r>   37.9198    0.0000 </r>
       <r>   40.0816    0.0000 </r>
       <r>   40.2591    0.0000 </r>
       <r>   44.8719    0.0000 </r>
      </set>
      <set comment="kpoint 24">
       <r>    4.4303    1.0000 </r>
       <r>    5.7225    1.0000 </r>
       <r>    6.0992    1.0000 </r>
       <r>    6.8441    1.0000 </r>
       <r>    7.5415    1.0000 </r>
       <r>    7.5482    1.0000 </r>
       <r>    7.9594    1.0000 </r>
       <r>    8.8467    1.0000 </r>
       <r>    8.9179    1.0000 </r>
       <r>    9.0033    1.0000 </r>
       <r>    9.3647    1.0000 </r>
       <r>   14.5989    0.0000 </r>
       <r>   18.5590    0.0000 </r>
       <r>   20.0565    0.0000 </r>
       <r>   25.6498    0.0000 </r>
       <r>   26.4000    0.0000 </r>
       <r>   29.1862    0.0000 </r>
       <r>   32.6178    0.0000 </r>
       <r>   33.1483    0.0000 </r>
       <r>   34.8129    0.0000 </r>
       <r>   38.8339    0.0000 </r>
       <r>   39.4066    0.0000 </r>
       <r>   41.1511    0.0000 </r>
       <r>   46.1077    0.0000 </r>
      </set>
      <set comment="kpoint 25">
       <r>    5.0490    1.0000 </r>
       <r>    5.5070    1.0000 </r>
       <r>    5.9724    1.0000 </r>
       <r>    6.8586    1.0000 </r>
       <r>    7.4269    1.0000 </r>
       <r>    7.8054    1.0000 </r>
       <r>    8.1810    1.0000 </r>
       <r>    9.1806    1.0000 </r>
       <r>    9.2506    1.0000 </r>
       <r>    9.4093    1.0000 </r>
       <r>   10.0636    0.1795 </r>
       <r>   14.6178    0.0000 </r>
       <r>   17.7165    0.0000 </r>
       <r>   20.4569    0.0000 </r>
       <r>   23.4931    0.0000 </r>
       <r>   25.3479    0.0000 </r>
       <r>   26.6651    0.0000 </r>
       <r>   32.0287    0.0000 </r>
       <r>   32.4710    0.0000 </r>
       <r>   33.8971    0.0000 </r>
       <r>   38.9278    0.0000 </r>
       <r>   40.0391    0.0000 </r>
       <r>   41.8717    0.0000 </r>
       <r>   45.8907    0.0000 </r>
      </set>
      <set comment="kpoint 26">
       <r>    5.1806    1.0000 </r>
       <r>    5.3996    1.0000 </r>
       <r>    5.9677    1.0000 </r>
       <r>    6.8809    1.0000 </r>
       <r>    7.3856    1.0000 </r>
       <r>    7.8858    1.0000 </r>
       <r>    8.3499    1.0000 </r>
       <r>    9.2708    1.0000 </r>
       <r>    9.3803    1.0000 </r>
       <r>    9.4606    1.0000 </r>
       <r>   11.2112    0.0000 </r>
       <r>   13.2076    0.0000 </r>
       <r>   19.0727    0.0000 </r>
       <r>   19.4225    0.0000 </r>
       <r>   23.8603    0.0000 </r>
       <r>   24.7798    0.0000 </r>
       <r>   24.9779    0.0000 </r>
       <r>   31.8912    0.0000 </r>
       <r>   32.2317    0.0000 </r>
       <r>   33.5675    0.0000 </r>
       <r>   38.7771    0.0000 </r>
       <r>   40.6768    0.0000 </r>
       <r>   42.1358    0.0000 </r>
       <r>   45.2929    0.0000 </r>
      </set>
      <set comment="kpoint 27">
       <r>    2.0961    1.0000 </r>
       <r>    5.3815    1.0000 </r>
       <r>    7.0545    1.0000 </r>
       <r>    7.3185    1.0000 </r>
       <r>    7.5928    1.0000 </r>
       <r>    7.6908    1.0000 </r>
       <r>    7.8219    1.0000 </r>
       <r>    7.9771    1.0000 </r>
       <r>    8.1695    1.0000 </r>
       <r>    8.2657    1.0000 </r>
       <r>    9.2538    1.0000 </r>
       <r>   11.4947    0.0000 </r>
       <r>   17.5624    0.0000 </r>
       <r>   28.0283    0.0000 </r>
       <r>   28.7391    0.0000 </r>
       <r>   33.3676    0.0000 </r>
       <r>   33.5046    0.0000 </r>
       <r>   34.5814    0.0000 </r>
       <r>   36.0937    0.0000 </r>
       <r>   36.5697    0.0000 </r>
       <r>   39.5522    0.0000 </r>
       <r>   40.0066    0.0000 </r>
       <r>   41.5066    0.0000 </r>
       <r>   41.7156    0.0000 </r>
      </set>
      <set comment="kpoint 28">
       <r>    2.9633    1.0000 </r>
       <r>    5.7714    1.0000 </r>
       <r>    6.7264    1.0000 </r>
       <r>    6.8104    1.0000 </r>
       <r>    7.4612    1.0000 </r>
       <r>    7.6550    1.0000 </r>
       <r>    7.9187    1.0000 </r>
       <r>    8.1398    1.0000 </r>
       <r>    8.3590    1.0000 </r>
       <r>    8.4857    1.0000 </r>
       <r>    9.2956    1.0000 </r>
       <r>   12.7758    0.0000 </r>
       <r>   18.0323    0.0000 </r>
       <r>   24.5062    0.0000 </r>
       <r>   26.7138    0.0000 </r>
       <r>   30.5051    0.0000 </r>
       <r>   32.6340    0.0000 </r>
       <r>   33.5284    0.0000 </r>
       <r>   35.8072    0.0000 </r>
       <r>   36.4816    0.0000 </r>
       <r>   37.4674    0.0000 </r>
       <r>   39.4534    0.0000 </r>
       <r>   42.1030    0.0000 </r>
       <r>   43.1518    0.0000 </r>
      </set>
      <set comment="kpoint 29">
       <r>    4.0606    1.0000 </r>
       <r>    5.9025    1.0000 </r>
       <r>    6.2352    1.0000 </r>
       <r>    6.7409    1.0000 </r>
       <r>    7.3695    1.0000 </r>
       <r>    7.6341    1.0000 </r>
       <r>    7.8595    1.0000 </r>
       <r>    8.4587    1.0000 </r>
       <r>    8.7637    1.0000 </r>
       <r>    8.9750    1.0000 </r>
       <r>    9.3593    1.0000 </r>
       <r>   14.1472    0.0000 </r>
       <r>   18.7532    0.0000 </r>
       <r>   21.0995    0.0000 </r>
       <r>   25.2001    0.0000 </r>
       <r>   27.3373    0.0000 </r>
       <r>   31.0865    0.0000 </r>
       <r>   31.5808    0.0000 </r>
       <r>   34.6525    0.0000 </r>
       <r>   35.7014    0.0000 </r>
       <r>   37.4824    0.0000 </r>
       <r>   40.1925    0.0000 </r>
       <r>   42.8716    0.0000 </r>
       <r>   44.1826    0.0000 </r>
      </set>
      <set comment="kpoint 30">
       <r>    4.9549    1.0000 </r>
       <r>    5.7080    1.0000 </r>
       <r>    6.0026    1.0000 </r>
       <r>    6.7756    1.0000 </r>
       <r>    7.4018    1.0000 </r>
       <r>    7.7223    1.0000 </r>
       <r>    7.9087    1.0000 </r>
       <r>    8.9077    1.0000 </r>
       <r>    9.1600    1.0000 </r>
       <r>    9.2715    1.0000 </r>
       <r>    9.8486    1.0000 </r>
       <r>   15.1994    0.0000 </r>
       <r>   17.9441    0.0000 </r>
       <r>   20.3521    0.0000 </r>
       <r>   23.9194    0.0000 </r>
       <r>   24.6825    0.0000 </r>
       <r>   28.2943    0.0000 </r>
       <r>   30.6883    0.0000 </r>
       <r>   33.9431    0.0000 </r>
       <r>   34.5515    0.0000 </r>
       <r>   38.2162    0.0000 </r>
       <r>   40.8709    0.0000 </r>
       <r>   43.2616    0.0000 </r>
       <r>   46.1428    0.0000 </r>
      </set>
      <set comment="kpoint 31">
       <r>    5.2503    1.0000 </r>
       <r>    5.5286    1.0000 </r>
       <r>    6.0041    1.0000 </r>
       <r>    6.8305    1.0000 </r>
       <r>    7.3274    1.0000 </r>
       <r>    7.9039    1.0000 </r>
       <r>    8.0889    1.0000 </r>
       <r>    9.2291    1.0000 </r>
       <r>    9.3309    1.0000 </r>
       <r>    9.3674    1.0000 </r>
       <r>   11.1016    0.0000 </r>
       <r>   13.9361    0.0000 </r>
       <r>   18.4880    0.0000 </r>
       <r>   20.2882    0.0000 </r>
       <r>   23.1985    0.0000 </r>
       <r>   23.8146    0.0000 </r>
       <r>   25.7873    0.0000 </r>
       <r>   30.2235    0.0000 </r>
       <r>   33.6469    0.0000 </r>
       <r>   33.9181    0.0000 </r>
       <r>   38.5146    0.0000 </r>
       <r>   41.8966    0.0000 </r>
       <r>   43.0902    0.0000 </r>
       <r>   45.6834    0.0000 </r>
      </set>
      <set comment="kpoint 32">
       <r>    3.9290    1.0000 </r>
       <r>    6.0865    1.0000 </r>
       <r>    6.3270    1.0000 </r>
       <r>    6.5227    1.0000 </r>
       <r>    7.3798    1.0000 </r>
       <r>    7.5439    1.0000 </r>
       <r>    7.8809    1.0000 </r>
       <r>    8.2642    1.0000 </r>
       <r>    8.7727    1.0000 </r>
       <r>    8.9738    1.0000 </r>
       <r>    9.3557    1.0000 </r>
       <r>   13.9887    0.0000 </r>
       <r>   18.7269    0.0000 </r>
       <r>   22.7968    0.0000 </r>
       <r>   23.2493    0.0000 </r>
       <r>   28.9675    0.0000 </r>
       <r>   29.6927    0.0000 </r>
       <r>   33.1869    0.0000 </r>
       <r>   33.7626    0.0000 </r>
       <r>   37.0348    0.0000 </r>
       <r>   37.9641    0.0000 </r>
       <r>   39.8212    0.0000 </r>
       <r>   43.7012    0.0000 </r>
       <r>   43.8033    0.0000 </r>
      </set>
      <set comment="kpoint 33">
       <r>    4.9519    1.0000 </r>
       <r>    5.9971    1.0000 </r>
       <r>    6.0849    1.0000 </r>
       <r>    6.5167    1.0000 </r>
       <r>    7.2817    1.0000 </r>
       <r>    7.6895    1.0000 </r>
       <r>    7.7211    1.0000 </r>
       <r>    8.5350    1.0000 </r>
       <r>    9.1805    1.0000 </r>
       <r>    9.1852    1.0000 </r>
       <r>    9.9212    0.9991 </r>
       <r>   15.3313    0.0000 </r>
       <r>   19.1925    0.0000 </r>
       <r>   20.3187    0.0000 </r>
       <r>   21.8708    0.0000 </r>
       <r>   26.2070    0.0000 </r>
       <r>   28.3443    0.0000 </r>
       <r>   30.2736    0.0000 </r>
       <r>   32.6264    0.0000 </r>
       <r>   37.4522    0.0000 </r>
       <r>   38.9700    0.0000 </r>
       <r>   41.8429    0.0000 </r>
       <r>   43.6338    0.0000 </r>
       <r>   45.7069    0.0000 </r>
      </set>
      <set comment="kpoint 34">
       <r>    5.4668    1.0000 </r>
       <r>    5.8602    1.0000 </r>
       <r>    6.0087    1.0000 </r>
       <r>    6.6467    1.0000 </r>
       <r>    7.2543    1.0000 </r>
       <r>    7.6552    1.0000 </r>
       <r>    7.9099    1.0000 </r>
       <r>    8.9067    1.0000 </r>
       <r>    9.1968    1.0000 </r>
       <r>    9.3778    1.0000 </r>
       <r>   11.0912    0.0000 </r>
       <r>   15.4539    0.0000 </r>
       <r>   18.1362    0.0000 </r>
       <r>   20.8483    0.0000 </r>
       <r>   21.2294    0.0000 </r>
       <r>   23.9857    0.0000 </r>
       <r>   27.3496    0.0000 </r>
       <r>   27.7511    0.0000 </r>
       <r>   31.9373    0.0000 </r>
       <r>   37.1758    0.0000 </r>
       <r>   40.1091    0.0000 </r>
       <r>   42.5340    0.0000 </r>
       <r>   45.8854    0.0000 </r>
       <r>   46.3142    0.0000 </r>
      </set>
      <set comment="kpoint 35">
       <r>    5.5018    1.0000 </r>
       <r>    5.7729    1.0000 </r>
       <r>    6.0999    1.0000 </r>
       <r>    6.7239    1.0000 </r>
       <r>    7.1930    1.0000 </r>
       <r>    7.7232    1.0000 </r>
       <r>    7.9977    1.0000 </r>
       <r>    9.1765    1.0000 </r>
       <r>    9.1810    1.0000 </r>
       <r>    9.3560    1.0000 </r>
       <r>   12.3885    0.0000 </r>
       <r>   13.8385    0.0000 </r>
       <r>   19.6183    0.0000 </r>
       <r>   19.9882    0.0000 </r>
       <r>   20.7823    0.0000 </r>
       <r>   24.3007    0.0000 </r>
       <r>   25.4953    0.0000 </r>
       <r>   27.4820    0.0000 </r>
       <r>   31.6936    0.0000 </r>
       <r>   37.0492    0.0000 </r>
       <r>   40.6586    0.0000 </r>
       <r>   42.5577    0.0000 </r>
       <r>   45.7032    0.0000 </r>
       <r>   46.2257    0.0000 </r>
      </set>
      <set comment="kpoint 36">
       <r>    5.7186    1.0000 </r>
       <r>    5.8505    1.0000 </r>
       <r>    6.2636    1.0000 </r>
       <r>    6.3186    1.0000 </r>
       <r>    7.2352    1.0000 </r>
       <r>    7.5054    1.0000 </r>
       <r>    7.8755    1.0000 </r>
       <r>    8.7128    1.0000 </r>
       <r>    9.1516    1.0000 </r>
       <r>    9.3855    1.0000 </r>
       <r>   11.1173    0.0000 </r>
       <r>   16.5265    0.0000 </r>
       <r>   18.3809    0.0000 </r>
       <r>   19.1028    0.0000 </r>
       <r>   21.4954    0.0000 </r>
       <r>   25.3831    0.0000 </r>
       <r>   25.5068    0.0000 </r>
       <r>   29.2551    0.0000 </r>
       <r>   29.8437    0.0000 </r>
       <r>   39.9044    0.0000 </r>
       <r>   41.3101    0.0000 </r>
       <r>   42.2398    0.0000 </r>
       <r>   44.9803    0.0000 </r>
       <r>   45.7814    0.0000 </r>
      </set>
      <set comment="kpoint 37">
       <r>    5.7648    1.0000 </r>
       <r>    6.0681    1.0000 </r>
       <r>    6.1584    1.0000 </r>
       <r>    6.5058    1.0000 </r>
       <r>    7.1870    1.0000 </r>
       <r>    7.3928    1.0000 </r>
       <r>    8.0450    1.0000 </r>
       <r>    8.9722    1.0000 </r>
       <r>    9.1207    1.0000 </r>
       <r>    9.3214    1.0000 </r>
       <r>   12.8173    0.0000 </r>
       <r>   15.2843    0.0000 </r>
       <r>   17.6244    0.0000 </r>
       <r>   19.8655    0.0000 </r>
       <r>   21.6993    0.0000 </r>
       <r>   23.9645    0.0000 </r>
       <r>   25.3631    0.0000 </r>
       <r>   26.9159    0.0000 </r>
       <r>   29.1792    0.0000 </r>
       <r>   40.7288    0.0000 </r>
       <r>   42.4071    0.0000 </r>
       <r>   43.7987    0.0000 </r>
       <r>   45.4005    0.0000 </r>
       <r>   46.4559    0.0000 </r>
      </set>
      <set comment="kpoint 38">
       <r>    5.8654    1.0000 </r>
       <r>    6.1902    1.0000 </r>
       <r>    6.1902    1.0000 </r>
       <r>    6.4727    1.0000 </r>
       <r>    7.2174    1.0000 </r>
       <r>    7.2174    1.0000 </r>
       <r>    8.1212    1.0000 </r>
       <r>    9.0883    1.0000 </r>
       <r>    9.1239    1.0000 </r>
       <r>    9.1239    1.0000 </r>
       <r>   14.6873    0.0000 </r>
       <r>   15.2956    0.0000 </r>
       <r>   15.2956    0.0000 </r>
       <r>   21.3672    0.0000 </r>
       <r>   22.1084    0.0000 </r>
       <r>   22.1084    0.0000 </r>
       <r>   26.0947    0.0000 </r>
       <r>   27.0206    0.0000 </r>
       <r>   27.0206    0.0000 </r>
       <r>   42.5105    0.0000 </r>
       <r>   44.3518    0.0000 </r>
       <r>   44.3518    0.0000 </r>
       <r>   45.8555    0.0000 </r>
       <r>   45.8918    0.0000 </r>
      </set>
      <set comment="kpoint 39">
       <r>    1.8542    1.0000 </r>
       <r>    4.7981    1.0000 </r>
       <r>    7.3261    1.0000 </r>
       <r>    7.3746    1.0000 </r>
       <r>    7.3746    1.0000 </r>
       <r>    7.6359    1.0000 </r>
       <r>    7.6359    1.0000 </r>
       <r>    8.2698    1.0000 </r>
       <r>    8.4329    1.0000 </r>
       <r>    8.4329    1.0000 </r>
       <r>    9.1579    1.0000 </r>
       <r>    9.1579    1.0000 </r>
       <r>   19.3999    0.0000 </r>
       <r>   30.9610    0.0000 </r>
       <r>   32.3017    0.0000 </r>
       <r>   33.9601    0.0000 </r>
       <r>   34.8625    0.0000 </r>
       <r>   34.8625    0.0000 </r>
       <r>   35.8719    0.0000 </r>
       <r>   35.8719    0.0000 </r>
       <r>   39.1483    0.0000 </r>
       <r>   39.1483    0.0000 </r>
       <r>   40.6311    0.0000 </r>
       <r>   40.6311    0.0000 </r>
      </set>
      <set comment="kpoint 40">
       <r>    2.0851    1.0000 </r>
       <r>    4.9701    1.0000 </r>
       <r>    7.2575    1.0000 </r>
       <r>    7.3504    1.0000 </r>
       <r>    7.3948    1.0000 </r>
       <r>    7.4635    1.0000 </r>
       <r>    7.7269    1.0000 </r>
       <r>    7.9777    1.0000 </r>
       <r>    8.4007    1.0000 </r>
       <r>    8.4428    1.0000 </r>
       <r>    9.1725    1.0000 </r>
       <r>    9.7358    1.0000 </r>
       <r>   19.5403    0.0000 </r>
       <r>   30.2890    0.0000 </r>
       <r>   31.3036    0.0000 </r>
       <r>   32.4844    0.0000 </r>
       <r>   32.8220    0.0000 </r>
       <r>   34.2114    0.0000 </r>
       <r>   36.2193    0.0000 </r>
       <r>   37.1039    0.0000 </r>
       <r>   38.8212    0.0000 </r>
       <r>   39.8914    0.0000 </r>
       <r>   40.0992    0.0000 </r>
       <r>   42.1762    0.0000 </r>
      </set>
      <set comment="kpoint 41">
       <r>    2.7443    1.0000 </r>
       <r>    5.4122    1.0000 </r>
       <r>    6.8233    1.0000 </r>
       <r>    7.0591    1.0000 </r>
       <r>    7.3171    1.0000 </r>
       <r>    7.6675    1.0000 </r>
       <r>    7.7855    1.0000 </r>
       <r>    7.9789    1.0000 </r>
       <r>    8.3744    1.0000 </r>
       <r>    8.5019    1.0000 </r>
       <r>    9.2028    1.0000 </r>
       <r>   10.6842    0.0000 </r>
       <r>   19.9737    0.0000 </r>
       <r>   26.6830    0.0000 </r>
       <r>   30.1667    0.0000 </r>
       <r>   30.5626    0.0000 </r>
       <r>   31.9794    0.0000 </r>
       <r>   32.5926    0.0000 </r>
       <r>   35.3262    0.0000 </r>
       <r>   35.7142    0.0000 </r>
       <r>   39.6316    0.0000 </r>
       <r>   40.9594    0.0000 </r>
       <r>   41.1249    0.0000 </r>
       <r>   43.4179    0.0000 </r>
      </set>
      <set comment="kpoint 42">
       <r>    3.6979    1.0000 </r>
       <r>    5.7967    1.0000 </r>
       <r>    6.3395    1.0000 </r>
       <r>    6.9241    1.0000 </r>
       <r>    7.2432    1.0000 </r>
       <r>    7.7586    1.0000 </r>
       <r>    7.8493    1.0000 </r>
       <r>    8.3505    1.0000 </r>
       <r>    8.5514    1.0000 </r>
       <r>    8.6469    1.0000 </r>
       <r>    9.2346    1.0000 </r>
       <r>   11.7168    0.0000 </r>
       <r>   20.6708    0.0000 </r>
       <r>   23.0539    0.0000 </r>
       <r>   27.1624    0.0000 </r>
       <r>   28.6030    0.0000 </r>
       <r>   31.5498    0.0000 </r>
       <r>   32.3803    0.0000 </r>
       <r>   34.1656    0.0000 </r>
       <r>   34.4489    0.0000 </r>
       <r>   37.3259    0.0000 </r>
       <r>   41.6094    0.0000 </r>
       <r>   42.1226    0.0000 </r>
       <r>   45.8417    0.0000 </r>
      </set>
      <set comment="kpoint 43">
       <r>    4.5918    1.0000 </r>
       <r>    5.7084    1.0000 </r>
       <r>    6.1418    1.0000 </r>
       <r>    6.7571    1.0000 </r>
       <r>    7.5425    1.0000 </r>
       <r>    7.6895    1.0000 </r>
       <r>    8.3031    1.0000 </r>
       <r>    8.7482    1.0000 </r>
       <r>    8.9035    1.0000 </r>
       <r>    8.9489    1.0000 </r>
       <r>    9.2834    1.0000 </r>
       <r>   12.8028    0.0000 </r>
       <r>   19.5672    0.0000 </r>
       <r>   21.6574    0.0000 </r>
       <r>   24.4041    0.0000 </r>
       <r>   27.0532    0.0000 </r>
       <r>   30.4393    0.0000 </r>
       <r>   32.3092    0.0000 </r>
       <r>   32.8708    0.0000 </r>
       <r>   33.2068    0.0000 </r>
       <r>   36.5736    0.0000 </r>
       <r>   41.5949    0.0000 </r>
       <r>   42.3573    0.0000 </r>
       <r>   45.4772    0.0000 </r>
      </set>
      <set comment="kpoint 44">
       <r>    4.9746    1.0000 </r>
       <r>    5.5193    1.0000 </r>
       <r>    6.2066    1.0000 </r>
       <r>    6.5427    1.0000 </r>
       <r>    7.6091    1.0000 </r>
       <r>    7.8717    1.0000 </r>
       <r>    8.9409    1.0000 </r>
       <r>    8.9763    1.0000 </r>
       <r>    9.2326    1.0000 </r>
       <r>    9.3841    1.0000 </r>
       <r>    9.8271    1.0000 </r>
       <r>   13.4942    0.0000 </r>
       <r>   17.5027    0.0000 </r>
       <r>   20.3215    0.0000 </r>
       <r>   24.4136    0.0000 </r>
       <r>   26.0395    0.0000 </r>
       <r>   28.5171    0.0000 </r>
       <r>   32.0001    0.0000 </r>
       <r>   32.0089    0.0000 </r>
       <r>   32.2943    0.0000 </r>
       <r>   37.6570    0.0000 </r>
       <r>   41.1404    0.0000 </r>
       <r>   41.6753    0.0000 </r>
       <r>   44.1746    0.0000 </r>
      </set>
      <set comment="kpoint 45">
       <r>    5.0248    1.0000 </r>
       <r>    5.4462    1.0000 </r>
       <r>    6.3398    1.0000 </r>
       <r>    6.3879    1.0000 </r>
       <r>    7.5775    1.0000 </r>
       <r>    7.9776    1.0000 </r>
       <r>    9.0277    1.0000 </r>
       <r>    9.1216    1.0000 </r>
       <r>    9.3706    1.0000 </r>
       <r>    9.4482    1.0000 </r>
       <r>   10.9582    0.0000 </r>
       <r>   12.9183    0.0000 </r>
       <r>   18.1067    0.0000 </r>
       <r>   18.2450    0.0000 </r>
       <r>   25.6838    0.0000 </r>
       <r>   25.9183    0.0000 </r>
       <r>   26.6454    0.0000 </r>
       <r>   31.6914    0.0000 </r>
       <r>   31.8780    0.0000 </r>
       <r>   32.0547    0.0000 </r>
       <r>   38.8929    0.0000 </r>
       <r>   40.3100    0.0000 </r>
       <r>   40.9826    0.0000 </r>
       <r>   44.0244    0.0000 </r>
      </set>
      <set comment="kpoint 46">
       <r>    2.5315    1.0000 </r>
       <r>    5.2839    1.0000 </r>
       <r>    6.9774    1.0000 </r>
       <r>    7.1012    1.0000 </r>
       <r>    7.3412    1.0000 </r>
       <r>    7.6278    1.0000 </r>
       <r>    7.7860    1.0000 </r>
       <r>    7.8974    1.0000 </r>
       <r>    8.4269    1.0000 </r>
       <r>    8.4403    1.0000 </r>
       <r>    9.1928    1.0000 </r>
       <r>   10.4225    0.0000 </r>
       <r>   19.8293    0.0000 </r>
       <r>   28.3564    0.0000 </r>
       <r>   29.1479    0.0000 </r>
       <r>   31.4009    0.0000 </r>
       <r>   32.1457    0.0000 </r>
       <r>   33.8711    0.0000 </r>
       <r>   35.0158    0.0000 </r>
       <r>   36.4981    0.0000 </r>
       <r>   39.8519    0.0000 </r>
       <r>   40.2613    0.0000 </r>
       <r>   41.6208    0.0000 </r>
       <r>   42.4973    0.0000 </r>
      </set>
      <set comment="kpoint 47">
       <r>    3.3512    1.0000 </r>
       <r>    5.7615    1.0000 </r>
       <r>    6.4774    1.0000 </r>
       <r>    6.8794    1.0000 </r>
       <r>    7.2852    1.0000 </r>
       <r>    7.6662    1.0000 </r>
       <r>    7.7868    1.0000 </r>
       <r>    8.1882    1.0000 </r>
       <r>    8.5308    1.0000 </r>
       <r>    8.5873    1.0000 </r>
       <r>    9.2288    1.0000 </r>
       <r>   11.3600    0.0000 </r>
       <r>   20.4236    0.0000 </r>
       <r>   24.9172    0.0000 </r>
       <r>   27.1318    0.0000 </r>
       <r>   29.0779    0.0000 </r>
       <r>   31.0981    0.0000 </r>
       <r>   33.2101    0.0000 </r>
       <r>   34.2859    0.0000 </r>
       <r>   37.2746    0.0000 </r>
       <r>   38.1733    0.0000 </r>
       <r>   39.3203    0.0000 </r>
       <r>   42.8029    0.0000 </r>
       <r>   43.5831    0.0000 </r>
      </set>
      <set comment="kpoint 48">
       <r>    4.3251    1.0000 </r>
       <r>    5.9098    1.0000 </r>
       <r>    6.1661    1.0000 </r>
       <r>    6.8199    1.0000 </r>
       <r>    7.2633    1.0000 </r>
       <r>    7.7482    1.0000 </r>
       <r>    7.8309    1.0000 </r>
       <r>    8.5048    1.0000 </r>
       <r>    8.8359    1.0000 </r>
       <r>    8.9025    1.0000 </r>
       <r>    9.3423    1.0000 </r>
       <r>   12.4313    0.0000 </r>
       <r>   20.9209    0.0000 </r>
       <r>   21.7883    0.0000 </r>
       <r>   25.4193    0.0000 </r>
       <r>   26.1726    0.0000 </r>
       <r>   30.1234    0.0000 </r>
       <r>   32.3619    0.0000 </r>
       <r>   34.0181    0.0000 </r>
       <r>   36.0947    0.0000 </r>
       <r>   36.6509    0.0000 </r>
       <r>   39.6907    0.0000 </r>
       <r>   44.4492    0.0000 </r>
       <r>   45.0084    0.0000 </r>
      </set>
      <set comment="kpoint 49">
       <r>    4.9771    1.0000 </r>
       <r>    5.7082    1.0000 </r>
       <r>    6.1328    1.0000 </r>
       <r>    6.6738    1.0000 </r>
       <r>    7.4411    1.0000 </r>
       <r>    7.8215    1.0000 </r>
       <r>    8.2780    1.0000 </r>
       <r>    8.8100    1.0000 </r>
       <r>    9.0595    1.0000 </r>
       <r>    9.2644    1.0000 </r>
       <r>    9.8537    1.0000 </r>
       <r>   13.5196    0.0000 </r>
       <r>   18.3890    0.0000 </r>
       <r>   21.5026    0.0000 </r>
       <r>   23.8913    0.0000 </r>
       <r>   24.8792    0.0000 </r>
       <r>   29.2959    0.0000 </r>
       <r>   30.1413    0.0000 </r>
       <r>   34.0429    0.0000 </r>
       <r>   35.0335    0.0000 </r>
       <r>   36.6292    0.0000 </r>
       <r>   39.8078    0.0000 </r>
       <r>   44.2651    0.0000 </r>
       <r>   45.3507    0.0000 </r>
      </set>
      <set comment="kpoint 50">
       <r>    5.1173    1.0000 </r>
       <r>    5.5765    1.0000 </r>
       <r>    6.3014    1.0000 </r>
       <r>    6.4865    1.0000 </r>
       <r>    7.3911    1.0000 </r>
       <r>    8.0463    1.0000 </r>
       <r>    8.6195    1.0000 </r>
       <r>    8.9692    1.0000 </r>
       <r>    9.2906    1.0000 </r>
       <r>    9.4302    1.0000 </r>
       <r>   11.0683    0.0000 </r>
       <r>   13.4954    0.0000 </r>
       <r>   17.5890    0.0000 </r>
       <r>   19.3244    0.0000 </r>
       <r>   24.0206    0.0000 </r>
       <r>   25.4420    0.0000 </r>
       <r>   27.7698    0.0000 </r>
       <r>   28.8439    0.0000 </r>
       <r>   33.8233    0.0000 </r>
       <r>   34.4443    0.0000 </r>
       <r>   37.8349    0.0000 </r>
       <r>   39.2976    0.0000 </r>
       <r>   42.7386    0.0000 </r>
       <r>   45.3457    0.0000 </r>
      </set>
      <set comment="kpoint 51">
       <r>    4.2312    1.0000 </r>
       <r>    6.0901    1.0000 </r>
       <r>    6.2400    1.0000 </r>
       <r>    6.6107    1.0000 </r>
       <r>    7.3005    1.0000 </r>
       <r>    7.5249    1.0000 </r>
       <r>    7.7762    1.0000 </r>
       <r>    8.3992    1.0000 </r>
       <r>    8.8216    1.0000 </r>
       <r>    8.9185    1.0000 </r>
       <r>    9.3873    1.0000 </r>
       <r>   12.3209    0.0000 </r>
       <r>   21.1736    0.0000 </r>
       <r>   23.2144    0.0000 </r>
       <r>   23.7399    0.0000 </r>
       <r>   27.5322    0.0000 </r>
       <r>   28.1247    0.0000 </r>
       <r>   33.4397    0.0000 </r>
       <r>   35.2306    0.0000 </r>
       <r>   36.2877    0.0000 </r>
       <r>   38.0169    0.0000 </r>
       <r>   39.7038    0.0000 </r>
       <r>   42.5438    0.0000 </r>
       <r>   43.1646    0.0000 </r>
      </set>
      <set comment="kpoint 52">
       <r>    5.0763    1.0000 </r>
       <r>    5.8976    1.0000 </r>
       <r>    6.2193    1.0000 </r>
       <r>    6.6664    1.0000 </r>
       <r>    7.2830    1.0000 </r>
       <r>    7.5898    1.0000 </r>
       <r>    7.7751    1.0000 </r>
       <r>    8.6045    1.0000 </r>
       <r>    8.9492    1.0000 </r>
       <r>    9.2950    1.0000 </r>
       <r>   10.0300    0.5126 </r>
       <r>   13.5343    0.0000 </r>
       <r>   20.0184    0.0000 </r>
       <r>   22.0251    0.0000 </r>
       <r>   22.4423    0.0000 </r>
       <r>   24.9546    0.0000 </r>
       <r>   26.8366    0.0000 </r>
       <r>   32.1196    0.0000 </r>
       <r>   34.2970    0.0000 </r>
       <r>   36.1868    0.0000 </r>
       <r>   38.1469    0.0000 </r>
       <r>   40.8592    0.0000 </r>
       <r>   43.1569    0.0000 </r>
       <r>   44.5869    0.0000 </r>
      </set>
      <set comment="kpoint 53">
       <r>    5.3826    1.0000 </r>
       <r>    5.9156    1.0000 </r>
       <r>    6.1584    1.0000 </r>
       <r>    6.6553    1.0000 </r>
       <r>    7.1903    1.0000 </r>
       <r>    7.7969    1.0000 </r>
[...]
       </set>
       <set comment="band 12">
        <r>  0.0006  0.0052  0.0868  0.0150  0.0068  0.0328  0.0009  0.0368  0.0159 </r>
        <r>  0.0086  0.0735  0.0061  0.2140  0.0965  0.0023  0.0134  0.0026  0.2267 </r>
       </set>
       <set comment="band 13">
        <r>  0.0645  0.0088  0.0224  0.0057  0.0333  0.0431  0.0031  0.1273  0.0117 </r>
        <r>  0.2557  0.0350  0.0056  0.0228  0.1321  0.0109  0.0121  0.0321  0.0464 </r>
       </set>
       <set comment="band 14">
        <r>  0.2557  0.0350  0.0056  0.0228  0.1321  0.0109  0.0121  0.0321  0.0464 </r>
        <r>  0.0645  0.0088  0.0224  0.0057  0.0333  0.0431  0.0031  0.1273  0.0117 </r>
       </set>
       <set comment="band 15">
        <r>  0.0009  0.0013  0.0207  0.0004  0.0004  0.1134  0.0002  0.0444  0.0001 </r>
        <r>  0.1581  0.2216  0.0001  0.0740  0.0749  0.0006  0.0376  0.0003  0.0250 </r>
       </set>
       <set comment="band 16">
        <r>  0.1581  0.2216  0.0001  0.0740  0.0749  0.0006  0.0376  0.0003  0.0250 </r>
        <r>  0.0009  0.0013  0.0207  0.0004  0.0004  0.1134  0.0002  0.0444  0.0001 </r>
       </set>
       <set comment="band 17">
        <r>  0.0014  0.0131  0.1547  0.0381  0.0039  0.0195  0.0030  0.0384  0.0059 </r>
        <r>  0.0020  0.0181  0.1120  0.0526  0.0054  0.0141  0.0041  0.0278  0.0081 </r>
       </set>
       <set comment="band 18">
        <r>  0.0020  0.0181  0.1120  0.0526  0.0054  0.0141  0.0041  0.0278  0.0081 </r>
        <r>  0.0014  0.0131  0.1547  0.0381  0.0039  0.0195  0.0030  0.0384  0.0059 </r>
       </set>
       <set comment="band 19">
        <r>  0.0270  0.0005  0.0160  0.0009  0.0712  0.0420  0.1484  0.1036  0.0238 </r>
        <r>  0.0227  0.0004  0.0189  0.0008  0.0601  0.0498  0.1252  0.1228  0.0200 </r>
       </set>
       <set comment="band 20">
        <r>  0.0227  0.0004  0.0189  0.0008  0.0601  0.0498  0.1252  0.1228  0.0200 </r>
        <r>  0.0270  0.0005  0.0160  0.0009  0.0712  0.0420  0.1484  0.1036  0.0238 </r>
       </set>
       <set comment="band 21">
        <r>  0.0031  0.0222  0.1576  0.0075  0.0018  0.0097  0.0064  0.0084  0.0007 </r>
        <r>  0.0195  0.1405  0.0249  0.0474  0.0112  0.0015  0.0402  0.0013  0.0043 </r>
       </set>
       <set comment="band 22">
        <r>  0.0195  0.1405  0.0249  0.0474  0.0112  0.0015  0.0402  0.0013  0.0043 </r>
        <r>  0.0031  0.0222  0.1576  0.0075  0.0018  0.0097  0.0064  0.0084  0.0007 </r>
       </set>
       <set comment="band 23">
        <r>  0.0056  0.0002  0.0011  0.0001  0.0039  0.2577  0.0017  0.0999  0.0013 </r>
        <r>  0.2104  0.0067  0.0000  0.0024  0.1457  0.0068  0.0642  0.0027  0.0486 </r>
       </set>
       <set comment="band 24">
        <r>  0.2104  0.0067  0.0000  0.0024  0.1457  0.0068  0.0642  0.0027  0.0486 </r>
        <r>  0.0056  0.0002  0.0011  0.0001  0.0039  0.2577  0.0017  0.0999  0.0013 </r>
       </set>
      </set>
      <set comment="kpoint 93">
       <set comment="band 1">
        <r>  0.0756  0.0067  0.0080  0.0430  0.0280  0.0001  0.0336  0.1558  0.0439 </r>
        <r>  0.0384  0.0034  0.0157  0.0219  0.0142  0.0003  0.0171  0.3065  0.0223 </r>
       </set>
       <set comment="band 2">
        <r>  0.0384  0.0034  0.0157  0.0219  0.0142  0.0003  0.0171  0.3065  0.0223 </r>
        <r>  0.0756  0.0067  0.0080  0.0430  0.0280  0.0001  0.0336  0.1558  0.0439 </r>
       </set>
       <set comment="band 3">
        <r>  0.0202  0.0502  0.0045  0.0114  0.5647  0.0099  0.0051  0.0000  0.0347 </r>
        <r>  0.0033  0.0081  0.0280  0.0018  0.0916  0.0610  0.0008  0.0000  0.0056 </r>
       </set>
       <set comment="band 4">
        <r>  0.0033  0.0081  0.0280  0.0018  0.0916  0.0610  0.0008  0.0000  0.0056 </r>
        <r>  0.0202  0.0502  0.0045  0.0114  0.5647  0.0099  0.0051  0.0000  0.0347 </r>
       </set>
       <set comment="band 5">
        <r>  0.0003  0.0000  0.0072  0.0216  0.0004  0.1963  0.0794  0.0213  0.0381 </r>
        <r>  0.0011  0.0000  0.0021  0.0734  0.0012  0.0579  0.2693  0.0063  0.1290 </r>
       </set>
       <set comment="band 6">
        <r>  0.0011  0.0000  0.0021  0.0734  0.0012  0.0579  0.2693  0.0063  0.1290 </r>
        <r>  0.0003  0.0000  0.0072  0.0216  0.0004  0.1963  0.0794  0.0213  0.0381 </r>
       </set>
       <set comment="band 7">
        <r>  0.0011  0.0000  0.0000  0.0001  0.0150  0.4357  0.0049  0.0797  0.0240 </r>
        <r>  0.0080  0.0000  0.0000  0.0011  0.1102  0.0594  0.0361  0.0109  0.1763 </r>
       </set>
       <set comment="band 8">
        <r>  0.0080  0.0000  0.0000  0.0011  0.1102  0.0594  0.0361  0.0109  0.1763 </r>
        <r>  0.0011  0.0000  0.0000  0.0001  0.0150  0.4357  0.0049  0.0797  0.0240 </r>
       </set>
       <set comment="band 9">
        <r>  0.0000  0.0000  0.0031  0.0000  0.0001  0.0895  0.0073  0.2083  0.0023 </r>
        <r>  0.0000  0.0001  0.0000  0.0030  0.0091  0.0013  0.5001  0.0030  0.1616 </r>
       </set>
       <set comment="band 10">
        <r>  0.0000  0.0001  0.0000  0.0030  0.0091  0.0013  0.5001  0.0030  0.1616 </r>
        <r>  0.0000  0.0000  0.0031  0.0000  0.0001  0.0895  0.0073  0.2083  0.0023 </r>
       </set>
       <set comment="band 11">
        <r>  0.0191  0.0008  0.0554  0.0434  0.0048  0.0052  0.0003  0.1121  0.0905 </r>
        <r>  0.0599  0.0025  0.0176  0.1365  0.0150  0.0017  0.0009  0.0357  0.2842 </r>
       </set>
       <set comment="band 12">
        <r>  0.0599  0.0025  0.0176  0.1365  0.0150  0.0017  0.0009  0.0357  0.2842 </r>
        <r>  0.0191  0.0008  0.0554  0.0434  0.0048  0.0052  0.0003  0.1121  0.0905 </r>
       </set>
       <set comment="band 13">
        <r>  0.0005  0.2806  0.0058  0.0065  0.2884  0.0035  0.0018  0.0060  0.0012 </r>
        <r>  0.0001  0.0271  0.0596  0.0006  0.0279  0.0365  0.0002  0.0621  0.0001 </r>
       </set>
       <set comment="band 14">
        <r>  0.0001  0.0271  0.0596  0.0006  0.0279  0.0365  0.0002  0.0621  0.0001 </r>
        <r>  0.0005  0.2806  0.0058  0.0065  0.2884  0.0035  0.0018  0.0060  0.0012 </r>
       </set>
       <set comment="band 15">
        <r>  0.1568  0.0004  0.0026  0.0699  0.0003  0.0708  0.0255  0.0490  0.0000 </r>
        <r>  0.2158  0.0006  0.0019  0.0962  0.0004  0.0514  0.0351  0.0356  0.0000 </r>
       </set>
       <set comment="band 16">
        <r>  0.2158  0.0006  0.0019  0.0962  0.0004  0.0514  0.0351  0.0356  0.0000 </r>
        <r>  0.1568  0.0004  0.0026  0.0699  0.0003  0.0708  0.0255  0.0490  0.0000 </r>
       </set>
       <set comment="band 17">
        <r>  0.0364  0.0000  0.0484  0.0583  0.0021  0.0051  0.0742  0.0172  0.0200 </r>
        <r>  0.0082  0.0000  0.2142  0.0132  0.0005  0.0225  0.0168  0.0762  0.0045 </r>
       </set>
       <set comment="band 18">
        <r>  0.0082  0.0000  0.2142  0.0132  0.0005  0.0225  0.0168  0.0762  0.0045 </r>
        <r>  0.0364  0.0000  0.0484  0.0583  0.0021  0.0051  0.0742  0.0172  0.0200 </r>
       </set>
       <set comment="band 19">
        <r>  0.0065  0.0530  0.0159  0.0119  0.0910  0.0215  0.0442  0.0180  0.0100 </r>
        <r>  0.0014  0.0115  0.0731  0.0026  0.0198  0.0988  0.0096  0.0828  0.0022 </r>
       </set>
       <set comment="band 20">
        <r>  0.0014  0.0115  0.0731  0.0026  0.0198  0.0988  0.0096  0.0828  0.0022 </r>
        <r>  0.0065  0.0530  0.0159  0.0119  0.0910  0.0215  0.0442  0.0180  0.0100 </r>
       </set>
       <set comment="band 21">
        <r>  0.0277  0.0070  0.0114  0.0438  0.0307  0.0010  0.2237  0.0284  0.0316 </r>
        <r>  0.0048  0.0012  0.0661  0.0075  0.0053  0.0059  0.0385  0.1650  0.0054 </r>
       </set>
       <set comment="band 22">
        <r>  0.0048  0.0012  0.0661  0.0075  0.0053  0.0059  0.0385  0.1650  0.0054 </r>
        <r>  0.0277  0.0070  0.0114  0.0438  0.0307  0.0010  0.2237  0.0284  0.0316 </r>
       </set>
       <set comment="band 23">
        <r>  0.0008  0.1774  0.0191  0.0008  0.1343  0.0096  0.0000  0.0046  0.0000 </r>
        <r>  0.0004  0.0894  0.0380  0.0004  0.0676  0.0190  0.0000  0.0091  0.0000 </r>
       </set>
       <set comment="band 24">
        <r>  0.0004  0.0894  0.0380  0.0004  0.0676  0.0190  0.0000  0.0091  0.0000 </r>
        <r>  0.0008  0.1774  0.0191  0.0008  0.1343  0.0096  0.0000  0.0046  0.0000 </r>
       </set>
      </set>
      <set comment="kpoint 94">
       <set comment="band 1">
        <r>  0.0451  0.0172  0.0011  0.0256  0.0789  0.0120  0.0517  0.1300  0.0448 </r>
        <r>  0.0186  0.0071  0.0026  0.0106  0.0326  0.0290  0.0214  0.3145  0.0185 </r>
       </set>
       <set comment="band 2">
        <r>  0.0186  0.0071  0.0026  0.0106  0.0326  0.0290  0.0214  0.3145  0.0185 </r>
        <r>  0.0451  0.0172  0.0011  0.0256  0.0789  0.0120  0.0517  0.1300  0.0448 </r>
       </set>
       <set comment="band 3">
        <r>  0.0032  0.0098  0.0061  0.0004  0.0661  0.1952  0.0350  0.0588  0.0035 </r>
        <r>  0.0126  0.0386  0.0015  0.0016  0.2601  0.0496  0.1376  0.0149  0.0139 </r>
       </set>
       <set comment="band 4">
        <r>  0.0126  0.0386  0.0015  0.0016  0.2601  0.0496  0.1376  0.0149  0.0139 </r>
        <r>  0.0032  0.0098  0.0061  0.0004  0.0661  0.1952  0.0350  0.0588  0.0035 </r>
       </set>
       <set comment="band 5">
        <r>  0.0006  0.0019  0.0361  0.0096  0.0156  0.1588  0.0049  0.0052  0.0235 </r>
        <r>  0.0065  0.0205  0.0033  0.1037  0.1692  0.0146  0.0533  0.0005  0.2549 </r>
       </set>
       <set comment="band 6">
        <r>  0.0065  0.0205  0.0033  0.1037  0.1692  0.0146  0.0533  0.0005  0.2549 </r>
        <r>  0.0006  0.0019  0.0361  0.0096  0.0156  0.1588  0.0049  0.0052  0.0235 </r>
       </set>
       <set comment="band 7">
        <r>  0.0024  0.0019  0.0003  0.0082  0.1269  0.0756  0.0165  0.0308  0.2313 </r>
        <r>  0.0007  0.0006  0.0010  0.0025  0.0388  0.2475  0.0050  0.1009  0.0707 </r>
       </set>
       <set comment="band 8">
        <r>  0.0007  0.0006  0.0010  0.0025  0.0388  0.2475  0.0050  0.1009  0.0707 </r>
        <r>  0.0024  0.0019  0.0003  0.0082  0.1269  0.0756  0.0165  0.0308  0.2313 </r>
       </set>
       <set comment="band 9">
        <r>  0.0003  0.0000  0.0009  0.0003  0.0020  0.0845  0.1260  0.1467  0.0098 </r>
        <r>  0.0010  0.0001  0.0002  0.0013  0.0082  0.0210  0.5082  0.0364  0.0397 </r>
       </set>
       <set comment="band 10">
        <r>  0.0010  0.0001  0.0002  0.0013  0.0082  0.0210  0.5082  0.0364  0.0397 </r>
        <r>  0.0003  0.0000  0.0009  0.0003  0.0020  0.0845  0.1260  0.1467  0.0098 </r>
       </set>
       <set comment="band 11">
        <r>  0.0180  0.0142  0.0509  0.1322  0.0210  0.0048  0.0009  0.0317  0.1601 </r>
        <r>  0.0169  0.0134  0.0542  0.1242  0.0197  0.0051  0.0008  0.0338  0.1504 </r>
       </set>
       <set comment="band 12">
        <r>  0.0169  0.0134  0.0542  0.1242  0.0197  0.0051  0.0008  0.0338  0.1504 </r>
        <r>  0.0180  0.0142  0.0509  0.1322  0.0210  0.0048  0.0009  0.0317  0.1601 </r>
       </set>
       <set comment="band 13">
        <r>  0.0172  0.0269  0.0341  0.0021  0.0300  0.0485  0.0009  0.0953  0.0019 </r>
        <r>  0.1199  0.1883  0.0049  0.0145  0.2099  0.0069  0.0065  0.0136  0.0134 </r>
       </set>
       <set comment="band 14">
        <r>  0.1199  0.1883  0.0049  0.0145  0.2099  0.0069  0.0065  0.0136  0.0134 </r>
        <r>  0.0172  0.0269  0.0341  0.0021  0.0300  0.0485  0.0009  0.0953  0.0019 </r>
       </set>
       <set comment="band 15">
        <r>  0.1184  0.0304  0.0088  0.0238  0.0150  0.0855  0.0143  0.0473  0.0021 </r>
        <r>  0.2281  0.0585  0.0045  0.0458  0.0289  0.0444  0.0275  0.0245  0.0041 </r>
       </set>
       <set comment="band 16">
        <r>  0.2281  0.0585  0.0045  0.0458  0.0289  0.0444  0.0275  0.0245  0.0041 </r>
        <r>  0.1184  0.0304  0.0088  0.0238  0.0150  0.0855  0.0143  0.0473  0.0021 </r>
       </set>
       <set comment="band 17">
        <r>  0.0064  0.0045  0.1155  0.0553  0.0024  0.0183  0.0144  0.0399  0.0195 </r>
        <r>  0.0050  0.0035  0.1482  0.0431  0.0019  0.0235  0.0112  0.0511  0.0152 </r>
       </set>
       <set comment="band 18">
        <r>  0.0050  0.0035  0.1482  0.0431  0.0019  0.0235  0.0112  0.0511  0.0152 </r>
        <r>  0.0064  0.0045  0.1155  0.0553  0.0024  0.0183  0.0144  0.0399  0.0195 </r>
       </set>
       <set comment="band 19">
        <r>  0.0032  0.0111  0.1174  0.0003  0.0151  0.0902  0.0101  0.1375  0.0014 </r>
        <r>  0.0170  0.0588  0.0222  0.0015  0.0796  0.0171  0.0531  0.0260  0.0074 </r>
       </set>
       <set comment="band 20">
        <r>  0.0170  0.0588  0.0222  0.0015  0.0796  0.0171  0.0531  0.0260  0.0074 </r>
        <r>  0.0032  0.0111  0.1174  0.0003  0.0151  0.0902  0.0101  0.1375  0.0014 </r>
       </set>
       <set comment="band 21">
        <r>  0.0226  0.0154  0.0254  0.0126  0.0009  0.0364  0.1385  0.0495  0.0028 </r>
        <r>  0.0301  0.0205  0.0192  0.0168  0.0012  0.0274  0.1838  0.0373  0.0037 </r>
       </set>
       <set comment="band 22">
        <r>  0.0301  0.0205  0.0192  0.0168  0.0012  0.0274  0.1838  0.0373  0.0037 </r>
        <r>  0.0226  0.0154  0.0254  0.0126  0.0009  0.0364  0.1385  0.0495  0.0028 </r>
       </set>
       <set comment="band 23">
        <r>  0.0297  0.0355  0.0251  0.0021  0.0576  0.0879  0.0010  0.0368  0.0093 </r>
        <r>  0.0946  0.1129  0.0079  0.0068  0.1833  0.0276  0.0030  0.0115  0.0297 </r>
       </set>
       <set comment="band 24">
        <r>  0.0946  0.1129  0.0079  0.0068  0.1833  0.0276  0.0030  0.0115  0.0297 </r>
        <r>  0.0297  0.0355  0.0251  0.0021  0.0576  0.0879  0.0010  0.0368  0.0093 </r>
       </set>
      </set>
      <set comment="kpoint 95">
       <set comment="band 1">
        <r>  0.0000  0.0523  0.0000  0.0523  0.1247  0.0338  0.0000  0.0338  0.1247 </r>
        <r>  0.0000  0.0101  0.0000  0.0101  0.0240  0.1756  0.0000  0.1756  0.0240 </r>
       </set>
       <set comment="band 2">
        <r>  0.0000  0.0101  0.0000  0.0101  0.0240  0.1756  0.0000  0.1756  0.0240 </r>
        <r>  0.0000  0.0523  0.0000  0.0523  0.1247  0.0338  0.0000  0.0338  0.1247 </r>
       </set>
       <set comment="band 3">
        <r>  0.0383  0.0000  0.0000  0.0000  0.0000  0.1286  0.1490  0.1286  0.0000 </r>
        <r>  0.0299  0.0000  0.0000  0.0000  0.0000  0.1646  0.1164  0.1646  0.0000 </r>
       </set>
       <set comment="band 4">
        <r>  0.0299  0.0000  0.0000  0.0000  0.0000  0.1646  0.1164  0.1646  0.0000 </r>
        <r>  0.0383  0.0000  0.0000  0.0000  0.0000  0.1286  0.1490  0.1286  0.0000 </r>
       </set>
       <set comment="band 5">
        <r>  0.0000  0.0642  0.0022  0.0642  0.3395  0.0000  0.0000  0.0000  0.3395 </r>
        <r>  0.0000  0.0032  0.0444  0.0032  0.0167  0.0000  0.0000  0.0000  0.0167 </r>
       </set>
       <set comment="band 6">
        <r>  0.0000  0.0032  0.0444  0.0032  0.0167  0.0000  0.0000  0.0000  0.0167 </r>
        <r>  0.0000  0.0642  0.0022  0.0642  0.3395  0.0000  0.0000  0.0000  0.3395 </r>
       </set>
       <set comment="band 7">
        <r>  0.0000  0.0029  0.0000  0.0029  0.2037  0.0465  0.0000  0.0465  0.2037 </r>
        <r>  0.0000  0.0008  0.0000  0.0008  0.0546  0.1734  0.0000  0.1734  0.0546 </r>
       </set>
       <set comment="band 8">
        <r>  0.0000  0.0008  0.0000  0.0008  0.0546  0.1734  0.0000  0.1734  0.0546 </r>
        <r>  0.0000  0.0029  0.0000  0.0029  0.2037  0.0465  0.0000  0.0465  0.2037 </r>
       </set>
       <set comment="band 9">
        <r>  0.0013  0.0000  0.0000  0.0000  0.0000  0.0923  0.2453  0.0923  0.0000 </r>
        <r>  0.0024  0.0000  0.0000  0.0000  0.0000  0.0502  0.4515  0.0502  0.0000 </r>
       </set>
       <set comment="band 10">
        <r>  0.0024  0.0000  0.0000  0.0000  0.0000  0.0502  0.4515  0.0502  0.0000 </r>
        <r>  0.0013  0.0000  0.0000  0.0000  0.0000  0.0923  0.2453  0.0923  0.0000 </r>
       </set>
       <set comment="band 11">
        <r>  0.0000  0.1544  0.0072  0.1544  0.1729  0.0000  0.0000  0.0000  0.1729 </r>
        <r>  0.0000  0.0070  0.1579  0.0070  0.0078  0.0000  0.0000  0.0000  0.0078 </r>
       </set>
       <set comment="band 12">
        <r>  0.0000  0.0070  0.1579  0.0070  0.0078  0.0000  0.0000  0.0000  0.0078 </r>
        <r>  0.0000  0.1544  0.0072  0.1544  0.1729  0.0000  0.0000  0.0000  0.1729 </r>
       </set>
       <set comment="band 13">
        <r>  0.0000  0.0372  0.0000  0.0372  0.0286  0.0714  0.0000  0.0714  0.0286 </r>
        <r>  0.0000  0.1393  0.0000  0.1393  0.1073  0.0191  0.0000  0.0191  0.1073 </r>
       </set>
       <set comment="band 14">
        <r>  0.0000  0.1393  0.0000  0.1393  0.1073  0.0191  0.0000  0.0191  0.1073 </r>
        <r>  0.0000  0.0372  0.0000  0.0372  0.0286  0.0714  0.0000  0.0714  0.0286 </r>
       </set>
       <set comment="band 15">
        <r>  0.0357  0.0000  0.0000  0.0000  0.0000  0.1193  0.0030  0.1193  0.0000 </r>
        <r>  0.5080  0.0000  0.0000  0.0000  0.0000  0.0084  0.0424  0.0084  0.0000 </r>
       </set>
       <set comment="band 16">
        <r>  0.5080  0.0000  0.0000  0.0000  0.0000  0.0084  0.0424  0.0084  0.0000 </r>
        <r>  0.0357  0.0000  0.0000  0.0000  0.0000  0.1193  0.0030  0.1193  0.0000 </r>
       </set>
       <set comment="band 17">
        <r>  0.0000  0.0024  0.4259  0.0024  0.0018  0.0000  0.0000  0.0000  0.0018 </r>
        <r>  0.0000  0.0529  0.0193  0.0529  0.0391  0.0000  0.0000  0.0000  0.0391 </r>
       </set>
       <set comment="band 18">
        <r>  0.0000  0.0529  0.0193  0.0529  0.0391  0.0000  0.0000  0.0000  0.0391 </r>
        <r>  0.0000  0.0024  0.4259  0.0024  0.0018  0.0000  0.0000  0.0000  0.0018 </r>
       </set>
       <set comment="band 19">
        <r>  0.0000  0.0488  0.0000  0.0488  0.0199  0.0270  0.0000  0.0270  0.0199 </r>
        <r>  0.0000  0.0079  0.0000  0.0079  0.0032  0.1666  0.0000  0.1666  0.0032 </r>
       </set>
       <set comment="band 20">
        <r>  0.0000  0.0079  0.0000  0.0079  0.0032  0.1666  0.0000  0.1666  0.0032 </r>
        <r>  0.0000  0.0488  0.0000  0.0488  0.0199  0.0270  0.0000  0.0270  0.0199 </r>
       </set>
       <set comment="band 21">
        <r>  0.0486  0.0000  0.0000  0.0000  0.0000  0.0542  0.1991  0.0542  0.0000 </r>
        <r>  0.0551  0.0000  0.0000  0.0000  0.0000  0.0478  0.2256  0.0478  0.0000 </r>
       </set>
       <set comment="band 22">
        <r>  0.0551  0.0000  0.0000  0.0000  0.0000  0.0478  0.2256  0.0478  0.0000 </r>
        <r>  0.0486  0.0000  0.0000  0.0000  0.0000  0.0542  0.1991  0.0542  0.0000 </r>
       </set>
       <set comment="band 23">
        <r>  0.0000  0.0672  0.0000  0.0672  0.1648  0.0119  0.0000  0.0119  0.1648 </r>
        <r>  0.0000  0.0139  0.0000  0.0139  0.0341  0.0574  0.0000  0.0574  0.0340 </r>
       </set>
       <set comment="band 24">
        <r>  0.0000  0.0139  0.0000  0.0139  0.0340  0.0574  0.0000  0.0574  0.0341 </r>
        <r>  0.0000  0.0672  0.0000  0.0672  0.1648  0.0119  0.0000  0.0119  0.1648 </r>
       </set>
      </set>
     </set>
    </set>
   </array>
  </projected>
 </calculation>
 <structure name="finalpos" >
  <crystal>
   <varray name="basis" >
    <v>       1.25302268      -2.17029895       0.00000000 </v>
    <v>       1.25302268       2.17029895       0.00000000 </v>
    <v>       0.00000000       0.00000000       4.04236970 </v>
   </varray>
   <i name="volume">     21.98591372 </i>
   <varray name="rec_basis" >
    <v>       0.39903507      -0.23038301       0.00000000 </v>
    <v>       0.39903507       0.23038301       0.00000000 </v>
    <v>       0.00000000       0.00000000       0.24737965 </v>
   </varray>
  </crystal>
  <varray name="positions" >
   <v>       0.33333333       0.66666667       0.25000000 </v>
   <v>       0.66666667       0.33333333       0.75000000 </v>
  </varray>
 </structure>
</modeling>
