   2   2   0   0
  0.2137190E+02  0.2470000E-09  0.2470000E-09  0.8090000E-09  0.5000000E-15
  1.000000000000000E-004
  CAR 
 Co fcc                                  
     21.97520086     -5.00493715  301      3.01890357      1.00000000
     -5.005  0.0000E+00  0.0000E+00  0.0000E+00  0.0000E+00
     -4.915  0.0000E+00  0.0000E+00  0.0000E+00  0.0000E+00
     -4.825  0.0000E+00  0.0000E+00  0.0000E+00  0.0000E+00
     -4.735  0.0000E+00  0.0000E+00  0.0000E+00  0.0000E+00
     -4.645 -0.1098E-29  0.0000E+00 -0.9875E-31  0.0000E+00
     -4.555 -0.1370E-26  0.0000E+00 -0.1233E-27  0.0000E+00
     -4.465 -0.1127E-23  0.0000E+00 -0.1015E-24  0.0000E+00
     -4.375 -0.6177E-21 -0.2528E-28 -0.5565E-22 -0.2274E-29
     -4.285 -0.2253E-18 -0.2613E-25 -0.2031E-19 -0.2352E-26
     -4.196 -0.5466E-16 -0.1798E-22 -0.4936E-17 -0.1619E-23
     -4.106 -0.8533E-14 -0.8226E-20 -0.7724E-15 -0.7415E-21
     -4.016 -0.9114E-12 -0.2503E-17 -0.8274E-13 -0.2258E-18
     -3.926 -0.6454E-10 -0.4931E-15 -0.5887E-11 -0.4457E-16
     -3.836 -0.3028E-08 -0.6557E-13 -0.2782E-09 -0.5941E-14
     -3.746 -0.9389E-07 -0.5807E-11 -0.8722E-08 -0.5282E-12
     -3.656 -0.1915E-05 -0.3404E-09 -0.1809E-06 -0.3114E-10
     -3.566 -0.2545E-04 -0.1319E-07 -0.2470E-05 -0.1217E-08
     -3.476 -0.2170E-03 -0.3366E-06 -0.2198E-04 -0.3149E-07
     -3.386 -0.1143E-02 -0.5629E-05 -0.1248E-03 -0.5378E-06
     -3.296 -0.3368E-02 -0.6107E-04 -0.4277E-03 -0.6030E-05
     -3.206 -0.3288E-02 -0.4207E-03 -0.7234E-03 -0.4387E-04
     -3.116  0.1140E-01 -0.1746E-02  0.3021E-03 -0.2009E-03
     -3.026  0.4795E-01 -0.3644E-02  0.4614E-02 -0.5286E-03
     -2.936  0.8595E-01  0.4837E-03  0.1234E-01 -0.4851E-03
     -2.847  0.9927E-01  0.2279E-01  0.2127E-01  0.1565E-02
     -2.757  0.9551E-01  0.5970E-01  0.2986E-01  0.6933E-02
     -2.667  0.9585E-01  0.8268E-01  0.3848E-01  0.1437E-01
     -2.577  0.9419E-01  0.7886E-01  0.4695E-01  0.2146E-01
     -2.487  0.6782E-01  0.6671E-01  0.5305E-01  0.2746E-01
     -2.397  0.1941E-01  0.5860E-01  0.5480E-01  0.3273E-01
     -2.307 -0.2281E-01  0.6030E-01  0.5275E-01  0.3815E-01
     -2.217 -0.1424E-01  0.7039E-01  0.5147E-01  0.4448E-01
     -2.127  0.1178E+00  0.6073E-01  0.6206E-01  0.4995E-01
     -2.037  0.3758E+00  0.2120E-01  0.9586E-01  0.5185E-01
     -1.947  0.6035E+00  0.1202E-01  0.1501E+00  0.5293E-01
     -1.857  0.6882E+00  0.1261E+00  0.2120E+00  0.6428E-01
     -1.767  0.6977E+00  0.3463E+00  0.2748E+00  0.9543E-01
     -1.677  0.6515E+00  0.4951E+00  0.3334E+00  0.1400E+00
     -1.587  0.4615E+00  0.4803E+00  0.3749E+00  0.1832E+00
     -1.498  0.1844E+00  0.4068E+00  0.3915E+00  0.2197E+00
     -1.408 -0.9313E-02  0.3563E+00  0.3906E+00  0.2518E+00
     -1.318 -0.7696E-01  0.3681E+00  0.3837E+00  0.2849E+00
     -1.228 -0.2945E-01  0.4390E+00  0.3810E+00  0.3244E+00
     -1.138  0.2312E+00  0.4236E+00  0.4018E+00  0.3625E+00
     -1.048  0.7617E+00  0.2553E+00  0.4703E+00  0.3854E+00
     -0.958  0.1357E+01  0.7286E-01  0.5924E+00  0.3920E+00
     -0.868  0.1552E+01 -0.9561E-02  0.7319E+00  0.3911E+00
     -0.778  0.1031E+01 -0.1651E-01  0.8247E+00  0.3896E+00
     -0.688  0.4217E+00 -0.6567E-02  0.8626E+00  0.3890E+00
     -0.598  0.1068E+01 -0.1560E-02  0.9587E+00  0.3889E+00
     -0.508  0.3075E+01 -0.1378E-02  0.1235E+01  0.3888E+00
     -0.418  0.4497E+01 -0.6451E-02  0.1640E+01  0.3882E+00
     -0.328  0.4245E+01 -0.2004E-01  0.2021E+01  0.3864E+00
     -0.238  0.3730E+01 -0.2570E-01  0.2357E+01  0.3841E+00
     -0.149  0.3708E+01  0.3939E-01  0.2690E+01  0.3876E+00
     -0.059  0.3515E+01  0.2245E+00  0.3006E+01  0.4078E+00
      0.031  0.3402E+01  0.4844E+00  0.3312E+01  0.4514E+00
      0.121  0.3628E+01  0.8181E+00  0.3639E+01  0.5249E+00
      0.211  0.3312E+01  0.1343E+01  0.3937E+01  0.6457E+00
      0.301  0.2375E+01  0.1957E+01  0.4150E+01  0.8217E+00
      0.391  0.2073E+01  0.2165E+01  0.4337E+01  0.1016E+01
      0.481  0.2577E+01  0.1612E+01  0.4568E+01  0.1161E+01
      0.571  0.2748E+01  0.6573E+00  0.4815E+01  0.1221E+01
      0.661  0.2981E+01 -0.3567E-01  0.5083E+01  0.1217E+01
      0.751  0.4878E+01 -0.9741E-01  0.5522E+01  0.1209E+01
      0.841  0.7493E+01  0.7151E+00  0.6196E+01  0.1273E+01
      0.931  0.7917E+01  0.2105E+01  0.6908E+01  0.1462E+01
      1.021  0.6346E+01  0.2708E+01  0.7479E+01  0.1706E+01
      1.111  0.5448E+01  0.1785E+01  0.7969E+01  0.1866E+01
      1.200  0.5318E+01  0.4541E+00  0.8447E+01  0.1907E+01
      1.290  0.4795E+01 -0.1575E+00  0.8878E+01  0.1893E+01
      1.380  0.4279E+01 -0.1173E+00  0.9263E+01  0.1882E+01
      1.470  0.3733E+01  0.2382E+00  0.9599E+01  0.1904E+01
      1.560  0.2453E+01  0.9787E+00  0.9819E+01  0.1992E+01
      1.650  0.9447E+00  0.2490E+01  0.9904E+01  0.2216E+01
      1.740  0.1913E+00  0.4685E+01  0.9921E+01  0.2637E+01
      1.830  0.2911E+00  0.6270E+01  0.9948E+01  0.3201E+01
      1.920  0.8476E+00  0.5883E+01  0.1002E+02  0.3730E+01
      2.010  0.1507E+01  0.3836E+01  0.1016E+02  0.4075E+01
      2.100  0.1834E+01  0.1927E+01  0.1032E+02  0.4248E+01
      2.190  0.1607E+01  0.1553E+01  0.1047E+02  0.4388E+01
      2.280  0.1135E+01  0.2166E+01  0.1057E+02  0.4583E+01
      2.370  0.9308E+00  0.2264E+01  0.1065E+02  0.4787E+01
      2.460  0.1204E+01  0.1727E+01  0.1076E+02  0.4942E+01
      2.550  0.1483E+01  0.1792E+01  0.1090E+02  0.5103E+01
      2.639  0.1207E+01  0.2923E+01  0.1100E+02  0.5366E+01
      2.729  0.6045E+00  0.4035E+01  0.1106E+02  0.5729E+01
      2.819  0.1898E+00  0.4110E+01  0.1108E+02  0.6098E+01
      2.909  0.3442E-01  0.3791E+01  0.1108E+02  0.6439E+01
      2.999 -0.8381E-02  0.4277E+01  0.1108E+02  0.6824E+01
      3.089 -0.1388E-01  0.5361E+01  0.1108E+02  0.7306E+01
      3.179 -0.7698E-02  0.5717E+01  0.1108E+02  0.7820E+01
      3.269 -0.3460E-02  0.4931E+01  0.1108E+02  0.8264E+01
      3.359 -0.5155E-02  0.4186E+01  0.1108E+02  0.8640E+01
      3.449 -0.8941E-02  0.4266E+01  0.1108E+02  0.9024E+01
      3.539  0.6732E-02  0.4298E+01  0.1108E+02  0.9410E+01
      3.629  0.7080E-01  0.3438E+01  0.1108E+02  0.9720E+01
      3.719  0.1514E+00  0.2317E+01  0.1110E+02  0.9928E+01
      3.809  0.1552E+00  0.1720E+01  0.1111E+02  0.1008E+02
      3.899  0.7152E-01  0.1700E+01  0.1112E+02  0.1024E+02
      3.988  0.1472E-01  0.2223E+01  0.1112E+02  0.1044E+02
      4.078  0.8880E-01  0.2638E+01  0.1113E+02  0.1067E+02
      4.168  0.2686E+00  0.2010E+01  0.1115E+02  0.1085E+02
      4.258  0.3780E+00  0.7619E+00  0.1118E+02  0.1092E+02
      4.348  0.2845E+00 -0.2048E-01  0.1121E+02  0.1092E+02
      4.438  0.9997E-01 -0.7424E-01  0.1122E+02  0.1091E+02
      4.528 -0.4226E-02  0.3251E+00  0.1122E+02  0.1094E+02
      4.618 -0.1832E-01  0.7849E+00  0.1122E+02  0.1101E+02
      4.708 -0.1094E-01  0.8343E+00  0.1122E+02  0.1109E+02
      4.798 -0.1929E-01  0.4451E+00  0.1121E+02  0.1113E+02
      4.888 -0.4726E-01  0.1064E+00  0.1121E+02  0.1114E+02
      4.978 -0.3375E-01  0.1107E+00  0.1121E+02  0.1115E+02
      5.068  0.1876E+00  0.2787E+00  0.1122E+02  0.1117E+02
      5.158  0.6885E+00  0.3541E+00  0.1128E+02  0.1120E+02
      5.248  0.1188E+01  0.3438E+00  0.1139E+02  0.1124E+02
      5.337  0.1409E+01  0.3522E+00  0.1152E+02  0.1127E+02
      5.427  0.1466E+01  0.3573E+00  0.1165E+02  0.1130E+02
      5.517  0.1369E+01  0.3331E+00  0.1177E+02  0.1133E+02
      5.607  0.9909E+00  0.2896E+00  0.1186E+02  0.1136E+02
      5.697  0.6846E+00  0.1933E+00  0.1192E+02  0.1137E+02
      5.787  0.7730E+00  0.5376E-01  0.1199E+02  0.1138E+02
      5.877  0.9032E+00 -0.1176E-01  0.1207E+02  0.1138E+02
      5.967  0.7255E+00  0.1778E+00  0.1214E+02  0.1139E+02
      6.057  0.3992E+00  0.7075E+00  0.1218E+02  0.1146E+02
      6.147  0.2091E+00  0.1264E+01  0.1219E+02  0.1157E+02
      6.237  0.2442E+00  0.1406E+01  0.1222E+02  0.1170E+02
      6.327  0.3268E+00  0.1194E+01  0.1225E+02  0.1180E+02
      6.417  0.2540E+00  0.9032E+00  0.1227E+02  0.1189E+02
      6.507  0.1023E+00  0.6755E+00  0.1228E+02  0.1195E+02
      6.597  0.5528E-01  0.6742E+00  0.1228E+02  0.1201E+02
      6.686  0.1251E+00  0.8310E+00  0.1229E+02  0.1208E+02
      6.776  0.2250E+00  0.8870E+00  0.1231E+02  0.1216E+02
      6.866  0.3158E+00  0.7447E+00  0.1234E+02  0.1223E+02
      6.956  0.3561E+00  0.4520E+00  0.1238E+02  0.1227E+02
      7.046  0.3359E+00  0.1900E+00  0.1241E+02  0.1229E+02
      7.136  0.3314E+00  0.1096E+00  0.1244E+02  0.1230E+02
      7.226  0.3142E+00  0.1179E+00  0.1246E+02  0.1231E+02
      7.316  0.2396E+00  0.1178E+00  0.1248E+02  0.1232E+02
      7.406  0.2364E+00  0.2002E+00  0.1251E+02  0.1233E+02
      7.496  0.3106E+00  0.3915E+00  0.1253E+02  0.1237E+02
      7.586  0.2743E+00  0.5252E+00  0.1256E+02  0.1242E+02
      7.676  0.1397E+00  0.4610E+00  0.1257E+02  0.1246E+02
      7.766  0.9534E-01  0.2470E+00  0.1258E+02  0.1248E+02
      7.856  0.1440E+00  0.9216E-01  0.1259E+02  0.1249E+02
      7.946  0.1376E+00  0.1500E+00  0.1261E+02  0.1250E+02
      8.035  0.5174E-01  0.2978E+00  0.1261E+02  0.1253E+02
      8.125 -0.1365E-02  0.2955E+00  0.1261E+02  0.1256E+02
      8.215  0.7359E-01  0.1586E+00  0.1262E+02  0.1257E+02
      8.305  0.2480E+00  0.9649E-01  0.1264E+02  0.1258E+02
      8.395  0.3416E+00  0.1369E+00  0.1267E+02  0.1259E+02
      8.485  0.2390E+00  0.1324E+00  0.1269E+02  0.1260E+02
      8.575  0.6938E-01  0.6177E-01  0.1270E+02  0.1261E+02
      8.665 -0.1920E-01  0.7005E-01  0.1270E+02  0.1262E+02
      8.755 -0.3461E-01  0.2171E+00  0.1269E+02  0.1263E+02
      8.845 -0.2440E-02  0.3364E+00  0.1269E+02  0.1266E+02
      8.935  0.1148E+00  0.2640E+00  0.1270E+02  0.1269E+02
      9.025  0.2894E+00  0.9362E-01  0.1273E+02  0.1270E+02
      9.115  0.4058E+00 -0.5863E-02  0.1276E+02  0.1270E+02
      9.205  0.4618E+00 -0.2495E-01  0.1281E+02  0.1269E+02
      9.295  0.5391E+00 -0.2612E-01  0.1285E+02  0.1269E+02
      9.384  0.5716E+00 -0.5515E-02  0.1291E+02  0.1269E+02
      9.474  0.4449E+00  0.1015E+00  0.1295E+02  0.1270E+02
      9.564  0.2603E+00  0.2964E+00  0.1297E+02  0.1273E+02
      9.654  0.2659E+00  0.4590E+00  0.1299E+02  0.1277E+02
      9.744  0.6047E+00  0.4767E+00  0.1305E+02  0.1281E+02
      9.834  0.1137E+01  0.3318E+00  0.1315E+02  0.1284E+02
      9.924  0.1435E+01  0.1517E+00  0.1328E+02  0.1285E+02
     10.014  0.1237E+01  0.2125E+00  0.1339E+02  0.1287E+02
     10.104  0.7654E+00  0.6241E+00  0.1346E+02  0.1293E+02
     10.194  0.3575E+00  0.1074E+01  0.1349E+02  0.1303E+02
     10.284  0.1495E+00  0.1198E+01  0.1350E+02  0.1313E+02
     10.374  0.1301E+00  0.1056E+01  0.1352E+02  0.1323E+02
     10.464  0.1720E+00  0.8902E+00  0.1353E+02  0.1331E+02
     10.554  0.1447E+00  0.7364E+00  0.1355E+02  0.1338E+02
     10.644  0.1259E+00  0.5511E+00  0.1356E+02  0.1343E+02
     10.733  0.3078E+00  0.3862E+00  0.1358E+02  0.1346E+02
     10.823  0.6151E+00  0.2847E+00  0.1364E+02  0.1349E+02
     10.913  0.7082E+00  0.2196E+00  0.1370E+02  0.1351E+02
     11.003  0.5313E+00  0.2009E+00  0.1375E+02  0.1352E+02
     11.093  0.3481E+00  0.3180E+00  0.1378E+02  0.1355E+02
     11.183  0.3464E+00  0.5946E+00  0.1381E+02  0.1361E+02
     11.273  0.6311E+00  0.7579E+00  0.1387E+02  0.1367E+02
     11.363  0.1018E+01  0.5534E+00  0.1396E+02  0.1372E+02
     11.453  0.1037E+01  0.2348E+00  0.1405E+02  0.1374E+02
     11.543  0.6683E+00  0.1519E+00  0.1412E+02  0.1376E+02
     11.633  0.3834E+00  0.2566E+00  0.1415E+02  0.1378E+02
     11.723  0.4267E+00  0.3773E+00  0.1419E+02  0.1382E+02
     11.813  0.6650E+00  0.5738E+00  0.1425E+02  0.1387E+02
     11.903  0.9440E+00  0.9493E+00  0.1433E+02  0.1395E+02
     11.993  0.1198E+01  0.1220E+01  0.1444E+02  0.1406E+02
     12.082  0.1250E+01  0.1032E+01  0.1455E+02  0.1415E+02
     12.172  0.9638E+00  0.5856E+00  0.1464E+02  0.1421E+02
     12.262  0.5622E+00  0.2647E+00  0.1469E+02  0.1423E+02
     12.352  0.3211E+00  0.1597E+00  0.1472E+02  0.1425E+02
     12.442  0.2230E+00  0.3090E+00  0.1474E+02  0.1427E+02
     12.532  0.3157E+00  0.7524E+00  0.1477E+02  0.1434E+02
     12.622  0.7304E+00  0.1215E+01  0.1483E+02  0.1445E+02
     12.712  0.1099E+01  0.1274E+01  0.1493E+02  0.1456E+02
     12.802  0.9299E+00  0.9730E+00  0.1502E+02  0.1465E+02
     12.892  0.4521E+00  0.7739E+00  0.1506E+02  0.1472E+02
     12.982  0.1709E+00  0.8010E+00  0.1507E+02  0.1479E+02
     13.072  0.1080E+00  0.8298E+00  0.1508E+02  0.1487E+02
     13.162  0.6652E-01  0.8657E+00  0.1509E+02  0.1495E+02
     13.252  0.7144E-01  0.8703E+00  0.1509E+02  0.1502E+02
     13.342  0.2044E+00  0.6058E+00  0.1511E+02  0.1508E+02
     13.431  0.3305E+00  0.2015E+00  0.1514E+02  0.1510E+02
     13.521  0.2684E+00 -0.2041E-01  0.1517E+02  0.1510E+02
     13.611  0.8874E-01 -0.5153E-01  0.1517E+02  0.1509E+02
     13.701 -0.8817E-02 -0.3360E-01  0.1517E+02  0.1509E+02
     13.791  0.5872E-01  0.1573E-01  0.1518E+02  0.1509E+02
     13.881  0.2228E+00  0.1526E+00  0.1520E+02  0.1510E+02
     13.971  0.3320E+00  0.3052E+00  0.1523E+02  0.1513E+02
     14.061  0.3717E+00  0.2889E+00  0.1526E+02  0.1516E+02
     14.151  0.4805E+00  0.1304E+00  0.1530E+02  0.1517E+02
     14.241  0.6557E+00  0.1291E+00  0.1536E+02  0.1518E+02
     14.331  0.7909E+00  0.4279E+00  0.1543E+02  0.1522E+02
     14.421  0.7798E+00  0.7041E+00  0.1551E+02  0.1528E+02
     14.511  0.5252E+00  0.5905E+00  0.1555E+02  0.1533E+02
     14.601  0.1749E+00  0.2674E+00  0.1557E+02  0.1536E+02
     14.691 -0.2280E-01  0.1495E+00  0.1557E+02  0.1537E+02
     14.780 -0.5269E-01  0.3228E+00  0.1556E+02  0.1540E+02
     14.870  0.9833E-02  0.5884E+00  0.1556E+02  0.1545E+02
     14.960  0.1617E+00  0.6584E+00  0.1558E+02  0.1551E+02
     15.050  0.3198E+00  0.4357E+00  0.1561E+02  0.1555E+02
     15.140  0.3119E+00  0.2084E+00  0.1563E+02  0.1557E+02
     15.230  0.1506E+00  0.2248E+00  0.1565E+02  0.1559E+02
     15.320  0.1728E-01  0.3141E+00  0.1565E+02  0.1562E+02
     15.410 -0.1771E-01  0.2414E+00  0.1565E+02  0.1564E+02
     15.500 -0.9932E-02  0.7999E-01  0.1565E+02  0.1565E+02
     15.590 -0.2471E-02 -0.7626E-02  0.1565E+02  0.1565E+02
     15.680 -0.3544E-03 -0.1599E-01  0.1565E+02  0.1565E+02
     15.770 -0.3204E-04 -0.5947E-02  0.1565E+02  0.1565E+02
     15.860 -0.1399E-04 -0.1156E-02  0.1565E+02  0.1565E+02
     15.950 -0.1614E-03 -0.1346E-03  0.1565E+02  0.1565E+02
     16.040 -0.1335E-02 -0.1019E-04  0.1565E+02  0.1565E+02
     16.130 -0.6582E-02 -0.8186E-05  0.1565E+02  0.1565E+02
     16.219 -0.1659E-01 -0.1098E-03  0.1564E+02  0.1565E+02
     16.309 -0.4242E-02 -0.9826E-03  0.1564E+02  0.1565E+02
     16.399  0.9309E-01 -0.5309E-02  0.1565E+02  0.1565E+02
     16.489  0.2630E+00 -0.1535E-01  0.1568E+02  0.1564E+02
     16.579  0.3385E+00 -0.1118E-01  0.1571E+02  0.1564E+02
     16.669  0.2296E+00  0.6781E-01  0.1573E+02  0.1565E+02
     16.759  0.8710E-01  0.2364E+00  0.1573E+02  0.1567E+02
     16.849  0.4002E-01  0.3546E+00  0.1574E+02  0.1570E+02
     16.939  0.3864E-01  0.2940E+00  0.1574E+02  0.1573E+02
     17.029  0.2228E-01  0.1409E+00  0.1574E+02  0.1574E+02
     17.119  0.2946E-02  0.3513E-01  0.1574E+02  0.1574E+02
     17.209 -0.3281E-02 -0.2334E-02  0.1574E+02  0.1574E+02
     17.299 -0.3831E-02 -0.7278E-02  0.1574E+02  0.1574E+02
     17.389 -0.9262E-02 -0.4154E-02  0.1574E+02  0.1574E+02
     17.479 -0.1780E-01 -0.3376E-02  0.1574E+02  0.1574E+02
     17.568  0.9151E-02 -0.9545E-02  0.1574E+02  0.1574E+02
     17.658  0.1317E+00 -0.1779E-01  0.1575E+02  0.1574E+02
     17.748  0.2985E+00  0.1294E-01  0.1578E+02  0.1574E+02
     17.838  0.3271E+00  0.1408E+00  0.1581E+02  0.1575E+02
     17.928  0.1743E+00  0.3054E+00  0.1583E+02  0.1578E+02
     18.018  0.1420E-01  0.3252E+00  0.1583E+02  0.1581E+02
     18.108 -0.1127E-01  0.1740E+00  0.1583E+02  0.1583E+02
     18.198  0.1259E+00  0.2514E-01  0.1584E+02  0.1583E+02
     18.288  0.3561E+00 -0.3041E-01  0.1587E+02  0.1583E+02
     18.378  0.4762E+00 -0.3007E-01  0.1591E+02  0.1582E+02
     18.468  0.3514E+00  0.2815E-01  0.1594E+02  0.1583E+02
     18.558  0.1252E+00  0.1962E+00  0.1595E+02  0.1584E+02
     18.648  0.1809E-02  0.4136E+00  0.1595E+02  0.1588E+02
     18.738 -0.3929E-02  0.4802E+00  0.1595E+02  0.1592E+02
     18.828  0.1898E-01  0.3183E+00  0.1596E+02  0.1595E+02
     18.917  0.2105E-01  0.1006E+00  0.1596E+02  0.1596E+02
     19.007  0.8542E-02 -0.7356E-02  0.1596E+02  0.1596E+02
     19.097 -0.5285E-04 -0.1937E-01  0.1596E+02  0.1596E+02
     19.187 -0.1427E-02 -0.7909E-02  0.1596E+02  0.1596E+02
     19.277 -0.6123E-03 -0.1744E-02  0.1596E+02  0.1596E+02
     19.367 -0.2077E-03 -0.2714E-03  0.1596E+02  0.1596E+02
     19.457 -0.6735E-03 -0.3413E-03  0.1596E+02  0.1596E+02
     19.547 -0.3257E-02 -0.1934E-02  0.1596E+02  0.1596E+02
     19.637 -0.8260E-02 -0.6480E-02  0.1596E+02  0.1596E+02
     19.727 -0.2274E-02 -0.7640E-02  0.1596E+02  0.1596E+02
     19.817  0.4613E-01  0.2197E-01  0.1596E+02  0.1596E+02
     19.907  0.1317E+00  0.1002E+00  0.1597E+02  0.1597E+02
     19.997  0.1708E+00  0.1677E+00  0.1599E+02  0.1598E+02
     20.087  0.1140E+00  0.1434E+00  0.1600E+02  0.1600E+02
     20.177  0.3136E-01  0.5839E-01  0.1600E+02  0.1600E+02
     20.266 -0.5979E-02  0.1737E-02  0.1600E+02  0.1600E+02
     20.356 -0.7307E-02 -0.8731E-02  0.1600E+02  0.1600E+02
     20.446 -0.2437E-02 -0.3961E-02  0.1600E+02  0.1600E+02
     20.536 -0.4380E-03 -0.8746E-03  0.1600E+02  0.1600E+02
     20.626 -0.4763E-04 -0.1136E-03  0.1600E+02  0.1600E+02
     20.716 -0.3267E-05 -0.9198E-05  0.1600E+02  0.1600E+02
     20.806 -0.1443E-06 -0.4767E-06  0.1600E+02  0.1600E+02
     20.896 -0.4148E-08 -0.1603E-07  0.1600E+02  0.1600E+02
     20.986 -0.7817E-10 -0.3524E-09  0.1600E+02  0.1600E+02
     21.076 -0.9699E-12 -0.5095E-11  0.1600E+02  0.1600E+02
     21.166 -0.8024E-14 -0.4856E-13  0.1600E+02  0.1600E+02
     21.256  0.0000E+00 -0.3086E-15  0.1600E+02  0.1600E+02
     21.346  0.0000E+00  0.0000E+00  0.1600E+02  0.1600E+02
     21.436  0.0000E+00  0.0000E+00  0.1600E+02  0.1600E+02
     21.526  0.0000E+00  0.0000E+00  0.1600E+02  0.1600E+02
     21.615  0.0000E+00  0.0000E+00  0.1600E+02  0.1600E+02
     21.705  0.0000E+00  0.0000E+00  0.1600E+02  0.1600E+02
     21.795  0.0000E+00  0.0000E+00  0.1600E+02  0.1600E+02
     21.885  0.0000E+00  0.0000E+00  0.1600E+02  0.1600E+02
     21.975  0.0000E+00  0.0000E+00  0.1600E+02  0.1600E+02
