Pt-fcc                                  
   1.00000000000000     
     0.000000    1.820541    1.820541
     1.820541    0.000000    1.820541
     1.820541    1.820541    0.000000
   Pt
     1
Direct
  0.000000  0.000000  0.000000
 
   36   36   36
  105.83      105.73      105.16      103.40      99.549      92.956      83.484      71.665      58.605      45.678    
  34.151      24.864      18.082      13.534      10.603      8.6679      7.4639      6.8182      6.6161      6.8182    
  7.4639      8.6679      10.603      13.534      18.082      24.864      34.151      45.678      58.605      71.665    
  83.484      92.956      99.549      103.40      105.16      105.73      105.73      105.40      104.21      101.37    
  96.064      87.910      77.120      64.546      51.460      39.211      28.857      20.935      15.413      11.817    
  9.4657      7.9387      7.0434      6.6344      6.6344      7.0434      7.9387      9.4657      11.817      15.413    
  20.935      28.857      39.211      51.460      64.546      77.120      87.910      96.064      101.37      104.21    
  105.40      105.73      105.16      104.21      101.92      97.516      90.474      80.758      68.948      56.132    
  43.617      32.575      23.756      17.355      13.073      10.294      8.4487      7.3018      6.6869      6.4944    
  6.6869      7.3018      8.4487      10.294      13.073      17.355      23.756      32.575      43.617      56.132    
  68.948      80.758      90.474      97.516      101.92      104.21      105.16      105.40      103.40      101.37    
  97.516      91.309      82.564      71.634      59.390      47.015      35.691      26.293      19.206      14.309    
  11.104      8.9665      7.5794      6.7670      6.3958      6.3958      6.7670      7.5794      8.9665      11.104    
  14.309      19.206      26.293      35.691      47.015      59.390      71.634      82.564      91.309      97.516    
  101.37      103.40      104.21      104.21      99.549      96.064      90.474      82.564      72.535      61.058    
  49.153      37.929      28.306      20.795      15.431      11.848      9.4583      7.8574      6.8645      6.3322    
  6.1656      6.3322      6.8645      7.8574      9.4583      11.848      15.431      20.795      28.306      37.929    
  49.153      61.058      72.535      82.564      90.474      96.064      99.549      101.37      101.92      101.37    
  92.956      87.910      80.758      71.634      61.058      49.881      39.097      29.598      21.958      16.332    
  12.477      9.8884      8.1147      6.9674      6.2957      5.9885      5.9885      6.2957      6.9674      8.1147    
  9.8884      12.477      16.332      21.958      29.598      39.097      49.881      61.058      71.634      80.758    
  87.910      92.956      96.064      97.516      97.516      96.064      83.484      77.120      68.948      59.390    
  49.153      39.097      30.043      22.573      16.916      12.937      10.223      8.3302      7.0633      6.2777    
  5.8557      5.7234      5.8557      6.2777      7.0633      8.3302      10.223      12.937      16.916      22.573    
  30.043      39.097      49.153      59.390      68.948      77.120      83.484      87.910      90.474      91.309    
  90.474      87.910      71.665      64.546      56.132      47.015      37.929      29.598      22.573      17.119    
  13.179      10.436      8.4853      7.1409      6.2709      5.7597      5.5250      5.5250      5.7597      6.2709    
  7.1409      8.4853      10.436      13.179      17.119      22.573      29.598      37.929      47.015      56.132    
  64.546      71.665      77.120      80.758      82.564      82.564      80.758      77.120      58.605      51.460    
  43.617      35.691      28.306      21.958      16.916      13.179      10.509      8.5665      7.1911      6.2695    
  5.6946      5.3836      5.2856      5.3836      5.6946      6.2695      7.1911      8.5665      10.509      13.179    
  16.916      21.958      28.306      35.691      43.617      51.461      58.605      64.546      68.948      71.634    
  72.535      71.634      68.948      64.546      45.678      39.211      32.575      26.293      20.795      16.332    
  12.937      10.436      8.5665      7.2085      6.2698      5.6568      5.2924      5.1235      5.1235      5.2924    
  5.6568      6.2698      7.2085      8.5665      10.436      12.937      16.332      20.795      26.293      32.575    
  39.211      45.678      51.461      56.132      59.390      61.058      61.058      59.390      56.132      51.460    
  34.151      28.857      23.756      19.206      15.431      12.477      10.223      8.4853      7.1911      6.2698    
  5.6444      5.2476      5.0296      4.9603      5.0296      5.2476      5.6444      6.2698      7.1911      8.4853    
  10.223      12.477      15.431      19.206      23.756      28.857      34.151      39.211      43.617      47.015    
  49.153      49.881      49.153      47.015      43.617      39.211      24.864      20.935      17.355      14.309    
  11.848      9.8884      8.3302      7.1409      6.2695      5.6568      5.2476      4.9989      4.8816      4.8816    
  4.9989      5.2476      5.6568      6.2695      7.1409      8.3302      9.8884      11.848      14.309      17.355    
  20.935      24.864      28.857      32.575      35.691      37.929      39.097      39.097      37.929      35.691    
  32.575      28.857      18.082      15.413      13.073      11.104      9.4583      8.1147      7.0633      6.2709    
  5.6946      5.2924      5.0296      4.8816      4.8339      4.8816      5.0296      5.2924      5.6946      6.2709    
  7.0633      8.1147      9.4583      11.104      13.073      15.413      18.082      20.935      23.756      26.293    
  28.306      29.598      30.043      29.598      28.306      26.293      23.756      20.935      13.534      11.817    
  10.294      8.9665      7.8574      6.9674      6.2777      5.7597      5.3836      5.1235      4.9603      4.8816    
  4.8816      4.9603      5.1235      5.3836      5.7597      6.2777      6.9674      7.8574      8.9665      10.294    
  11.817      13.534      15.413      17.355      19.206      20.795      21.958      22.573      22.573      21.958    
  20.795      19.206      17.355      15.413      10.603      9.4657      8.4487      7.5794      6.8645      6.2957    
  5.8557      5.5250      5.2856      5.1235      5.0296      4.9989      5.0296      5.1235      5.2856      5.5250    
  5.8557      6.2957      6.8645      7.5794      8.4487      9.4657      10.603      11.817      13.073      14.309    
  15.431      16.332      16.916      17.119      16.916      16.332      15.431      14.309      13.073      11.817    
  8.6679      7.9387      7.3018      6.7670      6.3322      5.9885      5.7234      5.5250      5.3836      5.2924    
  5.2476      5.2476      5.2924      5.3836      5.5250      5.7234      5.9885      6.3322      6.7670      7.3018    
  7.9387      8.6679      9.4657      10.294      11.104      11.848      12.477      12.937      13.179      13.179    
  12.937      12.477      11.848      11.104      10.294      9.4657      7.4639      7.0434      6.6869      6.3958    
  6.1656      5.9885      5.8557      5.7597      5.6946      5.6568      5.6444      5.6568      5.6946      5.7597    
  5.8557      5.9885      6.1656      6.3958      6.6869      7.0434      7.4639      7.9387      8.4487      8.9665    
  9.4583      9.8884      10.223      10.436      10.509      10.436      10.223      9.8884      9.4583      8.9665    
  8.4487      7.9387      6.8182      6.6344      6.4944      6.3958      6.3322      6.2957      6.2777      6.2709    
  6.2695      6.2698      6.2698      6.2695      6.2709      6.2777      6.2957      6.3322      6.3958      6.4944    
  6.6344      6.8182      7.0434      7.3018      7.5794      7.8574      8.1147      8.3302      8.4853      8.5665    
  8.5665      8.4853      8.3302      8.1147      7.8574      7.5794      7.3018      7.0434      6.6161      6.6344    
  6.6869      6.7670      6.8645      6.9674      7.0633      7.1409      7.1911      7.2085      7.1911      7.1409    
  7.0633      6.9674      6.8645      6.7670      6.6869      6.6344      6.6161      6.6344      6.6869      6.7670    
  6.8645      6.9674      7.0633      7.1409      7.1911      7.2085      7.1911      7.1409      7.0633      6.9674    
  6.8645      6.7670      6.6869      6.6344      6.8182      7.0434      7.3018      7.5794      7.8574      8.1147    
  8.3302      8.4853      8.5665      8.5665      8.4853      8.3302      8.1147      7.8574      7.5794      7.3018    
  7.0434      6.8182      6.6344      6.4944      6.3958      6.3322      6.2957      6.2777      6.2709      6.2695    
  6.2698      6.2698      6.2695      6.2709      6.2777      6.2957      6.3322      6.3958      6.4944      6.6344    
  7.4639      7.9387      8.4487      8.9665      9.4583      9.8884      10.223      10.436      10.509      10.436    
  10.223      9.8884      9.4583      8.9665      8.4487      7.9387      7.4639      7.0434      6.6869      6.3958    
  6.1656      5.9885      5.8557      5.7597      5.6946      5.6568      5.6444      5.6568      5.6946      5.7597    
  5.8557      5.9885      6.1656      6.3958      6.6869      7.0434      8.6679      9.4657      10.294      11.104    
  11.848      12.477      12.937      13.179      13.179      12.937      12.477      11.848      11.104      10.294    
  9.4657      8.6679      7.9387      7.3018      6.7670      6.3322      5.9885      5.7234      5.5250      5.3836    
  5.2924      5.2476      5.2476      5.2924      5.3836      5.5250      5.7234      5.9885      6.3322      6.7670    
  7.3018      7.9387      10.603      11.817      13.073      14.309      15.431      16.332      16.916      17.119    
  16.916      16.332      15.431      14.309      13.073      11.817      10.603      9.4657      8.4487      7.5794    
  6.8645      6.2957      5.8557      5.5250      5.2856      5.1235      5.0296      4.9989      5.0296      5.1235    
  5.2856      5.5250      5.8557      6.2957      6.8645      7.5794      8.4487      9.4657      13.534      15.413    
  17.355      19.206      20.795      21.958      22.573      22.573      21.958      20.795      19.206      17.355    
  15.413      13.534      11.817      10.294      8.9665      7.8574      6.9674      6.2777      5.7597      5.3836    
  5.1235      4.9603      4.8816      4.8816      4.9603      5.1235      5.3836      5.7597      6.2777      6.9674    
  7.8574      8.9665      10.294      11.817      18.082      20.935      23.756      26.293      28.306      29.598    
  30.043      29.598      28.306      26.293      23.756      20.935      18.082      15.413      13.073      11.104    
  9.4583      8.1147      7.0633      6.2709      5.6946      5.2924      5.0296      4.8816      4.8339      4.8816    
  5.0296      5.2924      5.6946      6.2709      7.0633      8.1147      9.4583      11.104      13.073      15.413    
  24.864      28.857      32.575      35.691      37.929      39.097      39.097      37.929      35.691      32.575    
  28.857      24.864      20.935      17.355      14.309      11.848      9.8884      8.3302      7.1409      6.2695    
  5.6568      5.2476      4.9989      4.8816      4.8816      4.9989      5.2476      5.6568      6.2695      7.1409    
  8.3302      9.8884      11.848      14.309      17.355      20.935      34.151      39.211      43.617      47.015    
  49.153      49.881      49.153      47.015      43.617      39.211      34.151      28.857      23.756      19.206    
  15.431      12.477      10.223      8.4853      7.1911      6.2698      5.6444      5.2476      5.0296      4.9603    
  5.0296      5.2476      5.6444      6.2698      7.1911      8.4853      10.223      12.477      15.431      19.206    
  23.756      28.857      45.678      51.460      56.132      59.390      61.058      61.058      59.390      56.132    
  51.461      45.678      39.211      32.575      26.293      20.795      16.332      12.937      10.436      8.5665    
  7.2085      6.2698      5.6568      5.2924      5.1235      5.1235      5.2924      5.6568      6.2698      7.2085    
  8.5665      10.436      12.937      16.332      20.795      26.293      32.575      39.211      58.605      64.546    
  68.948      71.634      72.535      71.634      68.948      64.546      58.605      51.461      43.617      35.691    
  28.306      21.958      16.916      13.179      10.509      8.5665      7.1911      6.2695      5.6946      5.3836    
  5.2856      5.3836      5.6946      6.2695      7.1911      8.5665      10.509      13.179      16.916      21.958    
  28.306      35.691      43.617      51.460      71.665      77.120      80.758      82.564      82.564      80.758    
  77.120      71.665      64.546      56.132      47.015      37.929      29.598      22.573      17.119      13.179    
  10.436      8.4853      7.1409      6.2709      5.7597      5.5250      5.5250      5.7597      6.2709      7.1409    
  8.4853      10.436      13.179      17.119      22.573      29.598      37.929      47.015      56.132      64.546    
  83.484      87.910      90.474      91.309      90.474      87.910      83.484      77.120      68.948      59.390    
  49.153      39.097      30.043      22.573      16.916      12.937      10.223      8.3302      7.0633      6.2777    
  5.8557      5.7234      5.8557      6.2777      7.0633      8.3302      10.223      12.937      16.916      22.573    
  30.043      39.097      49.153      59.390      68.948      77.120      92.956      96.064      97.516      97.516    
  96.064      92.956      87.910      80.758      71.634      61.058      49.881      39.097      29.598      21.958    
  16.332      12.477      9.8884      8.1147      6.9674      6.2957      5.9885      5.9885      6.2957      6.9674    
  8.1147      9.8884      12.477      16.332      21.958      29.598      39.097      49.881      61.058      71.634    
  80.758      87.910      99.549      101.37      101.92      101.37      99.549      96.064      90.474      82.564    
  72.535      61.058      49.153      37.929      28.306      20.795      15.431      11.848      9.4583      7.8574    
  6.8645      6.3322      6.1656      6.3322      6.8645      7.8574      9.4583      11.848      15.431      20.795    
  28.306      37.929      49.153      61.058      72.535      82.564      90.474      96.064      103.40      104.21    
  104.21      103.40      101.37      97.516      91.309      82.564      71.634      59.390      47.015      35.691    
  26.293      19.206      14.309      11.104      8.9665      7.5794      6.7670      6.3958      6.3958      6.7670    
  7.5794      8.9665      11.104      14.309      19.206      26.293      35.691      47.015      59.390      71.634    
  82.564      91.309      97.516      101.37      105.16      105.40      105.16      104.21      101.92      97.516    
  90.474      80.758      68.948      56.132      43.617      32.575      23.756      17.355      13.073      10.294    
  8.4487      7.3018      6.6869      6.4944      6.6869      7.3018      8.4487      10.294      13.073      17.355    
  23.756      32.575      43.617      56.132      68.948      80.758      90.474      97.516      101.92      104.21    
  105.73      105.73      105.40      104.21      101.37      96.064      87.910      77.120      64.546      51.460    
  39.211      28.857      20.935      15.413      11.817      9.4657      7.9387      7.0434      6.6344      6.6344    
  7.0434      7.9387      9.4657      11.817      15.413      20.935      28.857      39.211      51.460      64.546    
  77.120      87.910      96.064      101.37      104.21      105.40      105.73      105.40      104.21      101.37    
  96.064      87.910      77.120      64.546      51.460      39.211      28.857      20.935      15.413      11.817    
  9.4657      7.9387      7.0434      6.6344      6.6344      7.0434      7.9387      9.4657      11.817      15.413    
  20.935      28.857      39.211      51.460      64.546      77.120      87.910      96.064      101.37      104.21    
  105.40      105.73      105.40      104.53      102.35      98.071      91.135      81.480      69.674      56.802    
  44.186      33.020      24.075      17.568      13.211      10.389      8.5187      7.3556      6.7319      6.5367    
  6.7319      7.3556      8.5187      10.389      13.211      17.568      24.075      33.020      44.186      56.802    
  69.674      81.480      91.135      98.071      102.35      104.53      105.40      105.60      104.21      102.35    
  98.694      92.665      84.035      73.123      60.789      48.231      36.667      27.014      19.700      14.630    
  11.317      9.1205      7.6945      6.8589      6.4771      6.4771      6.8589      7.6945      9.1205      11.317    
  14.630      19.700      27.014      36.667      48.231      60.789      73.123      84.035      92.665      98.694    
  102.35      104.21      104.94      104.94      101.37      98.071      92.665      84.872      74.846      63.235    
  51.067      39.493      29.488      21.622      15.975      12.202      9.7084      8.0405      7.0053      6.4503    
  6.2766      6.4503      7.0053      8.0405      9.7084      12.202      15.975      21.622      29.488      39.493    
  51.067      63.235      74.846      84.872      92.665      98.071      101.37      103.04      103.54      103.04    
  96.064      91.135      84.035      74.846      64.057      52.522      41.276      31.270      23.151      17.128    
  12.992      10.242      8.3702      7.1580      6.4482      6.1238      6.1238      6.4482      7.1580      8.3702    
  10.242      12.992      17.128      23.151      31.270      41.276      52.522      64.057      74.846      84.035    
  91.135      96.064      99.051      100.43      100.43      99.051      87.910      81.480      73.123      63.235    
  52.522      41.884      32.202      24.133      17.971      13.621      10.683      8.6590      7.3027      6.4618    
  6.0106      5.8692      6.0106      6.4618      7.3027      8.6590      10.683      13.621      17.971      24.133    
  32.202      41.884      52.522      63.235      73.123      81.480      87.910      92.331      94.869      95.690    
  94.869      92.331      77.120      69.674      60.789      51.067      41.276      32.202      24.472      18.417    
  14.027      10.999      8.8839      7.4254      6.4824      5.9292      5.6756      5.6756      5.9292      6.4824    
  7.4254      8.8839      10.999      14.027      18.417      24.472      32.202      41.276      51.067      60.789    
  69.674      77.120      82.778      86.524      88.375      88.375      86.524      82.778      64.546      56.802    
  48.231      39.493      31.270      24.133      18.417      14.167      11.164      9.0268      7.5143      6.5025    
  5.8730      5.5336      5.4268      5.5336      5.8730      6.5025      7.5143      9.0268      11.164      14.167    
  18.417      24.133      31.270      39.493      48.231      56.802      64.546      70.941      75.653      78.517    
  79.475      78.517      75.653      70.941      51.460      44.186      36.667      29.488      23.151      17.971    
  14.027      11.164      9.0757      7.5610      6.5167      5.8377      5.4361      5.2507      5.2507      5.4361    
  5.8377      6.5167      7.5610      9.0757      11.164      14.027      17.971      23.151      29.488      36.666    
  44.186      51.461      57.925      63.122      66.735      68.581      68.581      66.735      63.122      57.925    
  39.211      33.020      27.014      21.622      17.128      13.621      10.999      9.0268      7.5610      6.5217    
  5.8207      5.3790      5.1379      5.0614      5.1379      5.3790      5.8207      6.5217      7.5610      9.0268    
  10.999      13.621      17.128      21.622      27.014      33.020      39.211      45.094      50.194      54.114    
  56.575      57.413      56.575      54.114      50.194      45.094      28.857      24.075      19.700      15.975    
  12.992      10.683      8.8839      7.5143      6.5167      5.8207      5.3602      5.0827      4.9528      4.9528    
  5.0827      5.3602      5.8207      6.5167      7.5143      8.8839      10.683      12.992      15.975      19.700    
  24.075      28.857      33.692      38.176      41.922      44.606      46.006      46.006      44.606      41.922    
  38.176      33.692      20.935      17.568      14.630      12.202      10.242      8.6590      7.4254      6.5025    
  5.8377      5.3790      5.0827      4.9173      4.8642      4.9173      5.0827      5.3790      5.8377      6.5025    
  7.4254      8.6590      10.242      12.202      14.630      17.568      20.935      24.533      28.081      31.265    
  33.785      35.400      35.956      35.400      33.785      31.265      28.081      24.533      15.413      13.211    
  11.317      9.7084      8.3702      7.3027      6.4824      5.8730      5.4361      5.1379      4.9528      4.8642    
  4.8642      4.9528      5.1379      5.4361      5.8730      6.4824      7.3027      8.3702      9.7084      11.317    
  13.211      15.413      17.859      20.398      22.822      24.900      26.421      27.224      27.224      26.421    
  24.900      22.822      20.398      17.859      11.817      10.389      9.1205      8.0405      7.1580      6.4618    
  5.9292      5.5336      5.2507      5.0614      4.9528      4.9173      4.9528      5.0614      5.2507      5.5336    
  5.9292      6.4618      7.1580      8.0405      9.1205      10.389      11.817      13.390      15.063      16.734    
  18.261      19.491      20.289      20.566      20.289      19.491      18.261      16.734      15.063      13.390    
  9.4657      8.5187      7.6945      7.0053      6.4482      6.0106      5.6756      5.4268      5.2507      5.1379    
  5.0827      5.0827      5.1379      5.2507      5.4268      5.6756      6.0106      6.4482      7.0053      7.6945    
  8.5187      9.4657      10.504      11.587      12.672      13.697      14.579      15.229      15.574      15.574    
  15.229      14.579      13.697      12.672      11.587      10.504      7.9387      7.3556      6.8589      6.4503    
  6.1238      5.8692      5.6756      5.5336      5.4361      5.3790      5.3602      5.3790      5.4361      5.5336    
  5.6756      5.8692      6.1238      6.4503      6.8589      7.3556      7.9387      8.5952      9.2998      10.015    
  10.694      11.290      11.761      12.063      12.168      12.063      11.761      11.290      10.694      10.015    
  9.2998      8.5952      7.0434      6.7319      6.4771      6.2766      6.1238      6.0106      5.9292      5.8730    
  5.8377      5.8207      5.8207      5.8377      5.8730      5.9292      6.0106      6.1238      6.2766      6.4771    
  6.7319      7.0434      7.4081      7.8146      8.2437      8.6692      9.0609      9.3879      9.6230      9.7459    
  9.7459      9.6230      9.3879      9.0609      8.6692      8.2437      7.8146      7.4081      6.6344      6.5367    
  6.4771      6.4503      6.4482      6.4618      6.4824      6.5025      6.5167      6.5217      6.5167      6.5025    
  6.4824      6.4618      6.4482      6.4503      6.4771      6.5367      6.6344      6.7715      6.9444      7.1442    
  7.3573      7.5666      7.7540      7.9022      7.9973      8.0300      7.9973      7.9022      7.7540      7.5666    
  7.3573      7.1442      6.9444      6.7715      6.6344      6.7319      6.8589      7.0053      7.1580      7.3027    
  7.4254      7.5143      7.5610      7.5610      7.5143      7.4254      7.3027      7.1580      7.0053      6.8589    
  6.7319      6.6344      6.5723      6.5469      6.5549      6.5893      6.6405      6.6979      6.7513      6.7920    
  6.8140      6.8140      6.7920      6.7513      6.6979      6.6405      6.5893      6.5549      6.5469      6.5723    
  7.0434      7.3556      7.6945      8.0405      8.3702      8.6590      8.8839      9.0268      9.0757      9.0268    
  8.8839      8.6590      8.3702      8.0405      7.6945      7.3556      7.0434      6.7715      6.5469      6.3705    
  6.2384      6.1439      6.0792      6.0367      6.0105      5.9964      5.9919      5.9964      6.0105      6.0367    
  6.0792      6.1439      6.2384      6.3705      6.5469      6.7715      7.9387      8.5187      9.1205      9.7084    
  10.242      10.683      10.999      11.164      11.164      10.999      10.683      10.242      9.7084      9.1205    
  8.5187      7.9387      7.4081      6.9444      6.5549      6.2384      5.9884      5.7960      5.6522      5.5498    
  5.4839      5.4515      5.4515      5.4839      5.5498      5.6522      5.7960      5.9884      6.2384      6.5549    
  6.9444      7.4081      9.4657      10.389      11.317      12.202      12.992      13.621      14.027      14.167    
  14.027      13.621      12.992      12.202      11.317      10.389      9.4657      8.5952      7.8146      7.1442    
  6.5893      6.1439      5.7960      5.5315      5.3378      5.2053      5.1280      5.1025      5.1280      5.2053    
  5.3378      5.5315      5.7960      6.1439      6.5893      7.1442      7.8146      8.5952      11.817      13.211    
  14.630      15.975      17.128      17.971      18.417      18.417      17.971      17.128      15.975      14.630    
  13.211      11.817      10.504      9.2998      8.2437      7.3573      6.6405      6.0792      5.6522      5.3378    
  5.1173      4.9773      4.9092      4.9092      4.9773      5.1173      5.3378      5.6522      6.0792      6.6405    
  7.3573      8.2437      9.2998      10.504      15.413      17.568      19.700      21.622      23.151      24.133    
  24.472      24.133      23.151      21.622      19.700      17.568      15.413      13.390      11.587      10.015    
  8.6692      7.5666      6.6979      6.0367      5.5498      5.2053      4.9773      4.8475      4.8053      4.8475    
  4.9773      5.2053      5.5498      6.0367      6.6979      7.5666      8.6692      10.015      11.587      13.390    
  20.935      24.075      27.014      29.488      31.270      32.202      32.202      31.270      29.488      27.014    
  24.075      20.935      17.859      15.063      12.672      10.694      9.0609      7.7540      6.7513      6.0105    
  5.4839      5.1280      4.9092      4.8053      4.8053      4.9092      5.1280      5.4839      6.0105      6.7513    
  7.7540      9.0609      10.694      12.672      15.063      17.859      28.857      33.020      36.667      39.493    
  41.276      41.884      41.276      39.493      36.666      33.020      28.857      24.533      20.398      16.734    
  13.697      11.290      9.3879      7.9022      6.7920      5.9964      5.4515      5.1025      4.9092      4.8475    
  4.9092      5.1025      5.4515      5.9964      6.7920      7.9022      9.3879      11.290      13.697      16.734    
  20.398      24.533      39.211      44.186      48.231      51.067      52.522      52.522      51.067      48.231    
  44.186      39.211      33.692      28.081      22.822      18.261      14.579      11.761      9.6230      7.9973    
  6.8140      5.9919      5.4515      5.1280      4.9773      4.9773      5.1280      5.4515      5.9919      6.8140    
  7.9973      9.6230      11.761      14.579      18.261      22.822      28.081      33.692      51.460      56.802    
  60.789      63.235      64.057      63.235      60.789      56.802      51.461      45.094      38.176      31.265    
  24.900      19.491      15.229      12.063      9.7459      8.0300      6.8140      5.9964      5.4839      5.2053    
  5.1173      5.2053      5.4839      5.9964      6.8140      8.0300      9.7459      12.063      15.229      19.491    
  24.900      31.265      38.176      45.094      64.546      69.674      73.123      74.846      74.846      73.123    
  69.674      64.546      57.925      50.194      41.922      33.785      26.421      20.289      15.574      12.168    
  9.7459      7.9973      6.7920      6.0105      5.5498      5.3378      5.3378      5.5498      6.0105      6.7920    
  7.9973      9.7459      12.168      15.574      20.289      26.421      33.785      41.922      50.194      57.925    
  77.120      81.480      84.035      84.872      84.035      81.480      77.120      70.941      63.122      54.114    
  44.606      35.400      27.224      20.566      15.574      12.063      9.6230      7.9022      6.7513      6.0367    
  5.6522      5.5315      5.6522      6.0367      6.7513      7.9022      9.6230      12.063      15.574      20.566    
  27.224      35.400      44.606      54.114      63.122      70.941      87.910      91.135      92.665      92.665    
  91.135      87.910      82.778      75.653      66.735      56.575      46.006      35.956      27.224      20.289    
  15.229      11.761      9.3879      7.7540      6.6979      6.0792      5.7960      5.7960      6.0792      6.6979    
  7.7540      9.3879      11.761      15.229      20.289      27.224      35.956      46.006      56.575      66.735    
  75.653      82.778      96.064      98.071      98.694      98.071      96.064      92.331      86.524      78.517    
  68.581      57.413      46.006      35.400      26.421      19.491      14.579      11.290      9.0609      7.5666    
  6.6405      6.1439      5.9884      6.1439      6.6405      7.5666      9.0609      11.290      14.579      19.491    
  26.421      35.400      46.006      57.413      68.581      78.517      86.524      92.331      101.37      102.35    