Pt-fcc                                  
   1.00000000000000     
     0.000000    1.820541    1.820541
     1.820541    0.000000    1.820541
     1.820541    1.820541    0.000000
   Pt
     1
Direct
  0.000000  0.000000  0.000000
 
   36   36   36
 0.10582663377E+03 0.10573016006E+03 0.10516197317E+03 0.10339562971E+03 0.99549056351E+02
 0.92956436891E+02 0.83483636091E+02 0.71665045662E+02 0.58604644270E+02 0.45677809083E+02
 0.34151076823E+02 0.24864390647E+02 0.18081530228E+02 0.13533585879E+02 0.10603033540E+02
 0.86678800936E+01 0.74639313586E+01 0.68182014594E+01 0.66161080456E+01 0.68182014594E+01
 0.74639313586E+01 0.86678800936E+01 0.10603033540E+02 0.13533585879E+02 0.18081530228E+02
 0.24864390647E+02 0.34151076823E+02 0.45677809083E+02 0.58604644270E+02 0.71665045662E+02
 0.83483636091E+02 0.92956436891E+02 0.99549056351E+02 0.10339562971E+03 0.10516197317E+03
 0.10573016006E+03 0.10573016006E+03 0.10539591040E+03 0.10421439400E+03 0.10136578373E+03
 0.96064147758E+02 0.87909872184E+02 0.77120287226E+02 0.64545669809E+02 0.51460498400E+02
 0.39211086593E+02 0.28856801135E+02 0.20934717769E+02 0.15413263689E+02 0.11816916533E+02
 0.94657008686E+01 0.79386730339E+01 0.70434415225E+01 0.66343892056E+01 0.66343895181E+01
 0.70434422563E+01 0.79386736891E+01 0.94657009772E+01 0.11816915958E+02 0.15413262774E+02
 0.20934717160E+02 0.28856801406E+02 0.39211087793E+02 0.51460499814E+02 0.64545670074E+02
 0.77120284796E+02 0.87909866064E+02 0.96064138027E+02 0.10136577184E+03 0.10421438245E+03
 0.10539590197E+03 0.10573015696E+03 0.10516197317E+03 0.10421439400E+03 0.10191766467E+03
 0.97516175862E+02 0.90474162449E+02 0.80757899965E+02 0.68947861465E+02 0.56131662393E+02
 0.43616768085E+02 0.32575332481E+02 0.23755585120E+02 0.17354875300E+02 0.13072995572E+02
 0.10294040747E+02 0.84487068299E+01 0.73018348207E+01 0.66868977302E+01 0.64944442289E+01
 0.66868987570E+01 0.73018361932E+01 0.84487076039E+01 0.10294040319E+02 0.13072994114E+02
 0.17354873763E+02 0.23755584716E+02 0.32575333918E+02 0.43616770895E+02 0.56131664782E+02
 0.68947860813E+02 0.80757893882E+02 0.90474149957E+02 0.97516158143E+02 0.10191764508E+03
 0.10421437713E+03 0.10516196341E+03 0.10539590197E+03 0.10339562971E+03 0.10136578373E+03
 0.97516175862E+02 0.91308641664E+02 0.82563600638E+02 0.71633982842E+02 0.59390054147E+02
 0.47015229575E+02 0.35691074367E+02 0.26293122607E+02 0.19206359775E+02 0.14309369050E+02
 0.11103863709E+02 0.89664685728E+01 0.75793635857E+01 0.67669590065E+01 0.63957804427E+01
 0.63957811422E+01 0.67669606485E+01 0.75793650847E+01 0.89664688708E+01 0.11103862478E+02
 0.14309366987E+02 0.19206358326E+02 0.26293123158E+02 0.35691077327E+02 0.47015233785E+02
 0.59390057042E+02 0.71633981352E+02 0.82563592525E+02 0.91308626736E+02 0.97516156462E+02
 0.10136576428E+03 0.10339561530E+03 0.10421437713E+03 0.10421438245E+03 0.99549056351E+02
 0.96064147758E+02 0.90474162449E+02 0.82563600638E+02 0.72534567566E+02 0.61058300860E+02
 0.49152727213E+02 0.37929170559E+02 0.28305782317E+02 0.20794727504E+02 0.15431180375E+02
 0.11848128461E+02 0.94582993764E+01 0.78573966663E+01 0.68644991768E+01 0.63322164155E+01
 0.61655780444E+01 0.63322177163E+01 0.68645009531E+01 0.78573977515E+01 0.94582989726E+01
 0.11848126686E+02 0.15431178314E+02 0.20794726709E+02 0.28305783954E+02 0.37929174620E+02
 0.49152732227E+02 0.61058304281E+02 0.72534566798E+02 0.82563594219E+02 0.90474150880E+02
 0.96064133652E+02 0.99549043601E+02 0.10136576428E+03 0.10191764508E+03 0.10136577184E+03
 0.92956436891E+02 0.87909872184E+02 0.80757899965E+02 0.71633982842E+02 0.61058300860E+02
 0.49881239950E+02 0.39097142277E+02 0.29597632575E+02 0.21958104020E+02 0.16331996299E+02
 0.12477327185E+02 0.98883747860E+01 0.81147368758E+01 0.69674434448E+01 0.62956606751E+01
 0.59884570513E+01 0.59884576487E+01 0.62956621126E+01 0.69674448461E+01 0.81147373427E+01
 0.98883739185E+01 0.12477325385E+02 0.16331994643E+02 0.21958103778E+02 0.29597634565E+02
 0.39097146366E+02 0.49881245008E+02 0.61058305124E+02 0.71633984678E+02 0.80757898587E+02
 0.87909868046E+02 0.92956431582E+02 0.96064133652E+02 0.97516156462E+02 0.97516158143E+02
 0.96064138027E+02 0.83483636091E+02 0.77120287226E+02 0.68947861465E+02 0.59390054147E+02
 0.49152727213E+02 0.39097142277E+02 0.30042673389E+02 0.22572985562E+02 0.16916400764E+02
 0.12936538317E+02 0.10223203908E+02 0.83302167021E+01 0.70633298832E+01 0.62777162468E+01
 0.58557362145E+01 0.57234064769E+01 0.58557369444E+01 0.62777173129E+01 0.70633306886E+01
 0.83302167411E+01 0.10223203029E+02 0.12936536832E+02 0.16916399369E+02 0.22572985070E+02
 0.30042674436E+02 0.39097145044E+02 0.49152731418E+02 0.59390059112E+02 0.68947866387E+02
 0.77120291451E+02 0.83483639239E+02 0.87909868046E+02 0.90474150880E+02 0.91308626736E+02
 0.90474149957E+02 0.87909866064E+02 0.71665045662E+02 0.64545669809E+02 0.56131662393E+02
 0.47015229575E+02 0.37929170559E+02 0.29597632575E+02 0.22572985562E+02 0.17118942043E+02
 0.13179331048E+02 0.10435766912E+02 0.84853369599E+01 0.71408578227E+01 0.62709306356E+01
 0.57597065763E+01 0.55250250032E+01 0.55250251333E+01 0.57597069241E+01 0.62709310868E+01
 0.71408581741E+01 0.84853369688E+01 0.10435766352E+02 0.13179329826E+02 0.17118940310E+02
 0.22572983757E+02 0.29597631413E+02 0.37929170812E+02 0.47015231865E+02 0.56131666919E+02
 0.64545676152E+02 0.71665052839E+02 0.77120291451E+02 0.80757898587E+02 0.82563594219E+02
 0.82563592525E+02 0.80757893882E+02 0.77120284796E+02 0.58604644270E+02 0.51460498400E+02
 0.43616768085E+02 0.35691074367E+02 0.28305782317E+02 0.21958104020E+02 0.16916400764E+02
 0.13179331048E+02 0.10508643083E+02 0.85664894460E+01 0.71911388740E+01 0.62695467741E+01
 0.56946032932E+01 0.53835764820E+01 0.52855828021E+01 0.53835762449E+01 0.56946030276E+01
 0.62695467393E+01 0.71911391528E+01 0.85664897905E+01 0.10508642962E+02 0.13179329857E+02
 0.16916398211E+02 0.21958100341E+02 0.28305778414E+02 0.35691071500E+02 0.43616767450E+02
 0.51460500638E+02 0.58604649054E+02 0.64545676152E+02 0.68947866387E+02 0.71633984678E+02
 0.72534566798E+02 0.71633981352E+02 0.68947860813E+02 0.64545670074E+02 0.45677809083E+02
 0.39211086593E+02 0.32575332481E+02 0.26293122607E+02 0.20794727504E+02 0.16331996299E+02
 0.12936538317E+02 0.10435766912E+02 0.85664894460E+01 0.72085404205E+01 0.62697775059E+01
 0.56567785373E+01 0.52923865967E+01 0.51235304860E+01 0.51235301551E+01 0.52923858250E+01
 0.56567778473E+01 0.62697774014E+01 0.72085410362E+01 0.85664903630E+01 0.10435767282E+02
 0.12936537182E+02 0.16331993121E+02 0.20794722419E+02 0.26293116543E+02 0.32575326836E+02
 0.39211082657E+02 0.45677807607E+02 0.51460500638E+02 0.56131666919E+02 0.59390059112E+02
 0.61058305124E+02 0.61058304281E+02 0.59390057042E+02 0.56131664782E+02 0.51460499814E+02
 0.34151076823E+02 0.28856801135E+02 0.23755585120E+02 0.19206359775E+02 0.15431180375E+02
 0.12477327185E+02 0.10223203908E+02 0.84853369599E+01 0.71911388740E+01 0.62697775059E+01
 0.56443564570E+01 0.52476203632E+01 0.50296387773E+01 0.49603107223E+01 0.50296380299E+01
 0.52476193290E+01 0.56443558173E+01 0.62697777758E+01 0.71911401114E+01 0.84853386082E+01
 0.10223205023E+02 0.12477326709E+02 0.15431177663E+02 0.19206354795E+02 0.23755578503E+02
 0.28856794003E+02 0.34151070288E+02 0.39211082657E+02 0.43616767450E+02 0.47015231865E+02
 0.49152731418E+02 0.49881245008E+02 0.49152732227E+02 0.47015233785E+02 0.43616770895E+02
 0.39211087793E+02 0.24864390647E+02 0.20934717769E+02 0.17354875300E+02 0.14309369050E+02
 0.11848128461E+02 0.98883747860E+01 0.83302167021E+01 0.71408578227E+01 0.62695467741E+01
 0.56567785373E+01 0.52476203632E+01 0.49988657619E+01 0.48816319690E+01 0.48816316251E+01
 0.49988649352E+01 0.52476195481E+01 0.56567783422E+01 0.62695475950E+01 0.71408597020E+01
 0.83302191759E+01 0.98883770867E+01 0.11848129648E+02 0.14309368347E+02 0.17354872353E+02
 0.20934712636E+02 0.24864383933E+02 0.28856794003E+02 0.32575326836E+02 0.35691071500E+02
 0.37929170812E+02 0.39097145044E+02 0.39097146366E+02 0.37929174620E+02 0.35691077327E+02
 0.32575333918E+02 0.28856801406E+02 0.18081530228E+02 0.15413263689E+02 0.13072995572E+02
 0.11103863709E+02 0.94582993764E+01 0.81147368758E+01 0.70633298832E+01 0.62709306356E+01
 0.56946032932E+01 0.52923865967E+01 0.50296387773E+01 0.48816319690E+01 0.48338752545E+01
 0.48816316290E+01 0.50296382768E+01 0.52923862510E+01 0.56946035040E+01 0.62709317539E+01
 0.70633321197E+01 0.81147401245E+01 0.94583031834E+01 0.11103867329E+02 0.13072998002E+02
 0.15413264132E+02 0.18081528152E+02 0.20934712636E+02 0.23755578503E+02 0.26293116543E+02
 0.28305778414E+02 0.29597631413E+02 0.30042674436E+02 0.29597634565E+02 0.28305783954E+02
 0.26293123158E+02 0.23755584716E+02 0.20934717160E+02 0.13533585879E+02 0.11816916533E+02
 0.10294040747E+02 0.89664685728E+01 0.78573966663E+01 0.69674434448E+01 0.62777162468E+01
 0.57597065763E+01 0.53835764820E+01 0.51235304860E+01 0.49603107223E+01 0.48816316251E+01
 0.48816316290E+01 0.49603106907E+01 0.51235303579E+01 0.53835762941E+01 0.57597066019E+01
 0.62777169659E+01 0.69674454148E+01 0.78574002556E+01 0.89664736321E+01 0.10294046640E+02
 0.11816922065E+02 0.13533589764E+02 0.15413264132E+02 0.17354872353E+02 0.19206354795E+02
 0.20794722419E+02 0.21958100341E+02 0.22572983757E+02 0.22572985070E+02 0.21958103778E+02
 0.20794726709E+02 0.19206358326E+02 0.17354873763E+02 0.15413262774E+02 0.10603033540E+02
 0.94657008686E+01 0.84487068299E+01 0.75793635857E+01 0.68644991768E+01 0.62956606751E+01
 0.58557362145E+01 0.55250250032E+01 0.52855828021E+01 0.51235301551E+01 0.50296380299E+01
 0.49988649352E+01 0.50296382768E+01 0.51235303579E+01 0.52855825980E+01 0.55250242392E+01
 0.58557351886E+01 0.62956601235E+01 0.68645000226E+01 0.75793665769E+01 0.84487120634E+01
 0.94657077048E+01 0.10603040761E+02 0.11816922065E+02 0.13072998002E+02 0.14309368347E+02
 0.15431177663E+02 0.16331993121E+02 0.16916398211E+02 0.17118940310E+02 0.16916399369E+02
 0.16331994643E+02 0.15431178314E+02 0.14309366987E+02 0.13072994114E+02 0.11816915958E+02
 0.86678800936E+01 0.79386730339E+01 0.73018348207E+01 0.67669590065E+01 0.63322164155E+01
 0.59884570513E+01 0.57234064769E+01 0.55250251333E+01 0.53835762449E+01 0.52923858250E+01
 0.52476193290E+01 0.52476195481E+01 0.52923862510E+01 0.53835762941E+01 0.55250242392E+01
 0.57234044431E+01 0.59884543022E+01 0.63322139163E+01 0.67669579065E+01 0.73018360436E+01
 0.79386768397E+01 0.86678859257E+01 0.94657077048E+01 0.10294046640E+02 0.11103867329E+02
 0.11848129648E+02 0.12477326709E+02 0.12936537182E+02 0.13179329857E+02 0.13179329826E+02
 0.12936536832E+02 0.12477325385E+02 0.11848126686E+02 0.11103862478E+02 0.10294040319E+02
 0.94657009772E+01 0.74639313586E+01 0.70434415225E+01 0.66868977302E+01 0.63957804427E+01
 0.61655780444E+01 0.59884576487E+01 0.58557369444E+01 0.57597069241E+01 0.56946030276E+01
 0.56567778473E+01 0.56443558173E+01 0.56567783422E+01 0.56946035040E+01 0.57597066019E+01
 0.58557351886E+01 0.59884543022E+01 0.61655735851E+01 0.63957758997E+01 0.66868942786E+01
 0.70434401119E+01 0.74639323758E+01 0.79386768397E+01 0.84487120634E+01 0.89664736321E+01
 0.94583031834E+01 0.98883770867E+01 0.10223205023E+02 0.10435767282E+02 0.10508642962E+02
 0.10435766352E+02 0.10223203029E+02 0.98883739185E+01 0.94582989726E+01 0.89664688708E+01
 0.84487076039E+01 0.79386736891E+01 0.68182014594E+01 0.66343892056E+01 0.64944442289E+01
 0.63957811422E+01 0.63322177163E+01 0.62956621126E+01 0.62777173129E+01 0.62709310868E+01
 0.62695467393E+01 0.62697774014E+01 0.62697777758E+01 0.62695475950E+01 0.62709317539E+01
 0.62777169659E+01 0.62956601235E+01 0.63322139163E+01 0.63957758997E+01 0.64944383882E+01
 0.66343837995E+01 0.68181974024E+01 0.70434401119E+01 0.73018360436E+01 0.75793665769E+01
 0.78574002556E+01 0.81147401245E+01 0.83302191759E+01 0.84853386082E+01 0.85664903630E+01
 0.85664897905E+01 0.84853369688E+01 0.83302167411E+01 0.81147373427E+01 0.78573977515E+01
 0.75793650847E+01 0.73018361932E+01 0.70434422563E+01 0.66161080456E+01 0.66343895181E+01
 0.66868987570E+01 0.67669606485E+01 0.68645009531E+01 0.69674448461E+01 0.70633306886E+01
 0.71408581741E+01 0.71911391528E+01 0.72085410362E+01 0.71911401114E+01 0.71408597020E+01
 0.70633321197E+01 0.69674454148E+01 0.68645000226E+01 0.67669579065E+01 0.66868942786E+01
 0.66343837995E+01 0.66161018785E+01 0.66343837995E+01 0.66868942786E+01 0.67669579065E+01
 0.68645000226E+01 0.69674454148E+01 0.70633321197E+01 0.71408597020E+01 0.71911401114E+01
 0.72085410362E+01 0.71911391528E+01 0.71408581741E+01 0.70633306886E+01 0.69674448461E+01
 0.68645009531E+01 0.67669606485E+01 0.66868987570E+01 0.66343895181E+01 0.68182014594E+01
 0.70434422563E+01 0.73018361932E+01 0.75793650847E+01 0.78573977515E+01 0.81147373427E+01
 0.83302167411E+01 0.84853369688E+01 0.85664897905E+01 0.85664903630E+01 0.84853386082E+01
 0.83302191759E+01 0.81147401245E+01 0.78574002556E+01 0.75793665769E+01 0.73018360436E+01
 0.70434401119E+01 0.68181974024E+01 0.66343837995E+01 0.64944383882E+01 0.63957758997E+01
 0.63322139163E+01 0.62956601235E+01 0.62777169659E+01 0.62709317539E+01 0.62695475950E+01
 0.62697777758E+01 0.62697774014E+01 0.62695467393E+01 0.62709310868E+01 0.62777173129E+01
 0.62956621126E+01 0.63322177163E+01 0.63957811422E+01 0.64944442289E+01 0.66343892056E+01
 0.74639313586E+01 0.79386736891E+01 0.84487076039E+01 0.89664688708E+01 0.94582989726E+01
 0.98883739185E+01 0.10223203029E+02 0.10435766352E+02 0.10508642962E+02 0.10435767282E+02
 0.10223205023E+02 0.98883770867E+01 0.94583031834E+01 0.89664736321E+01 0.84487120634E+01
 0.79386768397E+01 0.74639323758E+01 0.70434401119E+01 0.66868942786E+01 0.63957758997E+01
 0.61655735851E+01 0.59884543022E+01 0.58557351886E+01 0.57597066019E+01 0.56946035040E+01
 0.56567783422E+01 0.56443558173E+01 0.56567778473E+01 0.56946030276E+01 0.57597069241E+01
 0.58557369444E+01 0.59884576487E+01 0.61655780444E+01 0.63957804427E+01 0.66868977302E+01
 0.70434415225E+01 0.86678800936E+01 0.94657009772E+01 0.10294040319E+02 0.11103862478E+02
 0.11848126686E+02 0.12477325385E+02 0.12936536832E+02 0.13179329826E+02 0.13179329857E+02
 0.12936537182E+02 0.12477326709E+02 0.11848129648E+02 0.11103867329E+02 0.10294046640E+02
 0.94657077048E+01 0.86678859257E+01 0.79386768397E+01 0.73018360436E+01 0.67669579065E+01
 0.63322139163E+01 0.59884543022E+01 0.57234044431E+01 0.55250242392E+01 0.53835762941E+01
 0.52923862510E+01 0.52476195481E+01 0.52476193290E+01 0.52923858250E+01 0.53835762449E+01
 0.55250251333E+01 0.57234064769E+01 0.59884570513E+01 0.63322164155E+01 0.67669590065E+01
 0.73018348207E+01 0.79386730339E+01 0.10603033540E+02 0.11816915958E+02 0.13072994114E+02
 0.14309366987E+02 0.15431178314E+02 0.16331994643E+02 0.16916399369E+02 0.17118940310E+02
 0.16916398211E+02 0.16331993121E+02 0.15431177663E+02 0.14309368347E+02 0.13072998002E+02
 0.11816922065E+02 0.10603040761E+02 0.94657077048E+01 0.84487120634E+01 0.75793665769E+01
 0.68645000226E+01 0.62956601235E+01 0.58557351886E+01 0.55250242392E+01 0.52855825980E+01
 0.51235303579E+01 0.50296382768E+01 0.49988649352E+01 0.50296380299E+01 0.51235301551E+01
 0.52855828021E+01 0.55250250032E+01 0.58557362145E+01 0.62956606751E+01 0.68644991768E+01
 0.75793635857E+01 0.84487068299E+01 0.94657008686E+01 0.13533585879E+02 0.15413262774E+02
 0.17354873763E+02 0.19206358326E+02 0.20794726709E+02 0.21958103778E+02 0.22572985070E+02
 0.22572983757E+02 0.21958100341E+02 0.20794722419E+02 0.19206354795E+02 0.17354872353E+02
 0.15413264132E+02 0.13533589764E+02 0.11816922065E+02 0.10294046640E+02 0.89664736321E+01
 0.78574002556E+01 0.69674454148E+01 0.62777169659E+01 0.57597066019E+01 0.53835762941E+01
 0.51235303579E+01 0.49603106907E+01 0.48816316290E+01 0.48816316251E+01 0.49603107223E+01
 0.51235304860E+01 0.53835764820E+01 0.57597065763E+01 0.62777162468E+01 0.69674434448E+01
 0.78573966663E+01 0.89664685728E+01 0.10294040747E+02 0.11816916533E+02 0.18081530228E+02
 0.20934717160E+02 0.23755584716E+02 0.26293123158E+02 0.28305783954E+02 0.29597634565E+02
 0.30042674436E+02 0.29597631413E+02 0.28305778414E+02 0.26293116543E+02 0.23755578503E+02
 0.20934712636E+02 0.18081528152E+02 0.15413264132E+02 0.13072998002E+02 0.11103867329E+02
 0.94583031834E+01 0.81147401245E+01 0.70633321197E+01 0.62709317539E+01 0.56946035040E+01
 0.52923862510E+01 0.50296382768E+01 0.48816316290E+01 0.48338752545E+01 0.48816319690E+01
 0.50296387773E+01 0.52923865967E+01 0.56946032932E+01 0.62709306356E+01 0.70633298832E+01
 0.81147368758E+01 0.94582993764E+01 0.11103863709E+02 0.13072995572E+02 0.15413263689E+02
 0.24864390647E+02 0.28856801406E+02 0.32575333918E+02 0.35691077327E+02 0.37929174620E+02
 0.39097146366E+02 0.39097145044E+02 0.37929170812E+02 0.35691071500E+02 0.32575326836E+02
 0.28856794003E+02 0.24864383933E+02 0.20934712636E+02 0.17354872353E+02 0.14309368347E+02
 0.11848129648E+02 0.98883770867E+01 0.83302191759E+01 0.71408597020E+01 0.62695475950E+01
 0.56567783422E+01 0.52476195481E+01 0.49988649352E+01 0.48816316251E+01 0.48816319690E+01
 0.49988657619E+01 0.52476203632E+01 0.56567785373E+01 0.62695467741E+01 0.71408578227E+01
 0.83302167021E+01 0.98883747860E+01 0.11848128461E+02 0.14309369050E+02 0.17354875300E+02
 0.20934717769E+02 0.34151076823E+02 0.39211087793E+02 0.43616770895E+02 0.47015233785E+02
 0.49152732227E+02 0.49881245008E+02 0.49152731418E+02 0.47015231865E+02 0.43616767450E+02
 0.39211082657E+02 0.34151070288E+02 0.28856794003E+02 0.23755578503E+02 0.19206354795E+02
 0.15431177663E+02 0.12477326709E+02 0.10223205023E+02 0.84853386082E+01 0.71911401114E+01
 0.62697777758E+01 0.56443558173E+01 0.52476193290E+01 0.50296380299E+01 0.49603107223E+01
 0.50296387773E+01 0.52476203632E+01 0.56443564570E+01 0.62697775059E+01 0.71911388740E+01
 0.84853369599E+01 0.10223203908E+02 0.12477327185E+02 0.15431180375E+02 0.19206359775E+02
 0.23755585120E+02 0.28856801135E+02 0.45677809083E+02 0.51460499814E+02 0.56131664782E+02
 0.59390057042E+02 0.61058304281E+02 0.61058305124E+02 0.59390059112E+02 0.56131666919E+02
 0.51460500638E+02 0.45677807607E+02 0.39211082657E+02 0.32575326836E+02 0.26293116543E+02
 0.20794722419E+02 0.16331993121E+02 0.12936537182E+02 0.10435767282E+02 0.85664903630E+01
 0.72085410362E+01 0.62697774014E+01 0.56567778473E+01 0.52923858250E+01 0.51235301551E+01
 0.51235304860E+01 0.52923865967E+01 0.56567785373E+01 0.62697775059E+01 0.72085404205E+01
 0.85664894460E+01 0.10435766912E+02 0.12936538317E+02 0.16331996299E+02 0.20794727504E+02
 0.26293122607E+02 0.32575332481E+02 0.39211086593E+02 0.58604644270E+02 0.64545670074E+02
 0.68947860813E+02 0.71633981352E+02 0.72534566798E+02 0.71633984678E+02 0.68947866387E+02
 0.64545676152E+02 0.58604649054E+02 0.51460500638E+02 0.43616767450E+02 0.35691071500E+02
 0.28305778414E+02 0.21958100341E+02 0.16916398211E+02 0.13179329857E+02 0.10508642962E+02
 0.85664897905E+01 0.71911391528E+01 0.62695467393E+01 0.56946030276E+01 0.53835762449E+01
 0.52855828021E+01 0.53835764820E+01 0.56946032932E+01 0.62695467741E+01 0.71911388740E+01
 0.85664894460E+01 0.10508643083E+02 0.13179331048E+02 0.16916400764E+02 0.21958104020E+02
 0.28305782317E+02 0.35691074367E+02 0.43616768085E+02 0.51460498400E+02 0.71665045662E+02
 0.77120284796E+02 0.80757893882E+02 0.82563592525E+02 0.82563594219E+02 0.80757898587E+02
 0.77120291451E+02 0.71665052839E+02 0.64545676152E+02 0.56131666919E+02 0.47015231865E+02
 0.37929170812E+02 0.29597631413E+02 0.22572983757E+02 0.17118940310E+02 0.13179329826E+02
 0.10435766352E+02 0.84853369688E+01 0.71408581741E+01 0.62709310868E+01 0.57597069241E+01
 0.55250251333E+01 0.55250250032E+01 0.57597065763E+01 0.62709306356E+01 0.71408578227E+01
 0.84853369599E+01 0.10435766912E+02 0.13179331048E+02 0.17118942043E+02 0.22572985562E+02
 0.29597632575E+02 0.37929170559E+02 0.47015229575E+02 0.56131662393E+02 0.64545669809E+02
 0.83483636091E+02 0.87909866064E+02 0.90474149957E+02 0.91308626736E+02 0.90474150880E+02
 0.87909868046E+02 0.83483639239E+02 0.77120291451E+02 0.68947866387E+02 0.59390059112E+02
 0.49152731418E+02 0.39097145044E+02 0.30042674436E+02 0.22572985070E+02 0.16916399369E+02
 0.12936536832E+02 0.10223203029E+02 0.83302167411E+01 0.70633306886E+01 0.62777173129E+01
 0.58557369444E+01 0.57234064769E+01 0.58557362145E+01 0.62777162468E+01 0.70633298832E+01
 0.83302167021E+01 0.10223203908E+02 0.12936538317E+02 0.16916400764E+02 0.22572985562E+02
 0.30042673389E+02 0.39097142277E+02 0.49152727213E+02 0.59390054147E+02 0.68947861465E+02
 0.77120287226E+02 0.92956436891E+02 0.96064138027E+02 0.97516158143E+02 0.97516156462E+02
 0.96064133652E+02 0.92956431582E+02 0.87909868046E+02 0.80757898587E+02 0.71633984678E+02
 0.61058305124E+02 0.49881245008E+02 0.39097146366E+02 0.29597634565E+02 0.21958103778E+02
 0.16331994643E+02 0.12477325385E+02 0.98883739185E+01 0.81147373427E+01 0.69674448461E+01
 0.62956621126E+01 0.59884576487E+01 0.59884570513E+01 0.62956606751E+01 0.69674434448E+01
 0.81147368758E+01 0.98883747860E+01 0.12477327185E+02 0.16331996299E+02 0.21958104020E+02
 0.29597632575E+02 0.39097142277E+02 0.49881239950E+02 0.61058300860E+02 0.71633982842E+02
 0.80757899965E+02 0.87909872184E+02 0.99549056351E+02 0.10136577184E+03 0.10191764508E+03
 0.10136576428E+03 0.99549043601E+02 0.96064133652E+02 0.90474150880E+02 0.82563594219E+02
 0.72534566798E+02 0.61058304281E+02 0.49152732227E+02 0.37929174620E+02 0.28305783954E+02
 0.20794726709E+02 0.15431178314E+02 0.11848126686E+02 0.94582989726E+01 0.78573977515E+01
 0.68645009531E+01 0.63322177163E+01 0.61655780444E+01 0.63322164155E+01 0.68644991768E+01
 0.78573966663E+01 0.94582993764E+01 0.11848128461E+02 0.15431180375E+02 0.20794727504E+02
 0.28305782317E+02 0.37929170559E+02 0.49152727213E+02 0.61058300860E+02 0.72534567566E+02
 0.82563600638E+02 0.90474162449E+02 0.96064147758E+02 0.10339562971E+03 0.10421438245E+03
 0.10421437713E+03 0.10339561530E+03 0.10136576428E+03 0.97516156462E+02 0.91308626736E+02
 0.82563592525E+02 0.71633981352E+02 0.59390057042E+02 0.47015233785E+02 0.35691077327E+02
 0.26293123158E+02 0.19206358326E+02 0.14309366987E+02 0.11103862478E+02 0.89664688708E+01
 0.75793650847E+01 0.67669606485E+01 0.63957811422E+01 0.63957804427E+01 0.67669590065E+01
 0.75793635857E+01 0.89664685728E+01 0.11103863709E+02 0.14309369050E+02 0.19206359775E+02
 0.26293122607E+02 0.35691074367E+02 0.47015229575E+02 0.59390054147E+02 0.71633982842E+02
 0.82563600638E+02 0.91308641664E+02 0.97516175862E+02 0.10136578373E+03 0.10516197317E+03
 0.10539590197E+03 0.10516196341E+03 0.10421437713E+03 0.10191764508E+03 0.97516158143E+02
 0.90474149957E+02 0.80757893882E+02 0.68947860813E+02 0.56131664782E+02 0.43616770895E+02
 0.32575333918E+02 0.23755584716E+02 0.17354873763E+02 0.13072994114E+02 0.10294040319E+02
 0.84487076039E+01 0.73018361932E+01 0.66868987570E+01 0.64944442289E+01 0.66868977302E+01
 0.73018348207E+01 0.84487068299E+01 0.10294040747E+02 0.13072995572E+02 0.17354875300E+02
 0.23755585120E+02 0.32575332481E+02 0.43616768085E+02 0.56131662393E+02 0.68947861465E+02
 0.80757899965E+02 0.90474162449E+02 0.97516175862E+02 0.10191766467E+03 0.10421439400E+03
 0.10573016006E+03 0.10573015696E+03 0.10539590197E+03 0.10421438245E+03 0.10136577184E+03
 0.96064138027E+02 0.87909866064E+02 0.77120284796E+02 0.64545670074E+02 0.51460499814E+02
 0.39211087793E+02 0.28856801406E+02 0.20934717160E+02 0.15413262774E+02 0.11816915958E+02
 0.94657009772E+01 0.79386736891E+01 0.70434422563E+01 0.66343895181E+01 0.66343892056E+01
 0.70434415225E+01 0.79386730339E+01 0.94657008686E+01 0.11816916533E+02 0.15413263689E+02
 0.20934717769E+02 0.28856801135E+02 0.39211086593E+02 0.51460498400E+02 0.64545669809E+02
 0.77120287226E+02 0.87909872184E+02 0.96064147758E+02 0.10136578373E+03 0.10421439400E+03
 0.10539591040E+03 0.10573016006E+03 0.10539591040E+03 0.10421439400E+03 0.10136578373E+03
 0.96064147758E+02 0.87909872184E+02 0.77120287226E+02 0.64545669809E+02 0.51460498400E+02
 0.39211086593E+02 0.28856801135E+02 0.20934717769E+02 0.15413263689E+02 0.11816916533E+02
 0.94657008686E+01 0.79386730339E+01 0.70434415225E+01 0.66343892056E+01 0.66343895181E+01
 0.70434422563E+01 0.79386736891E+01 0.94657009772E+01 0.11816915958E+02 0.15413262774E+02
 0.20934717160E+02 0.28856801406E+02 0.39211087793E+02 0.51460499814E+02 0.64545670074E+02
 0.77120284796E+02 0.87909866064E+02 0.96064138027E+02 0.10136577184E+03 0.10421438245E+03
 0.10539590197E+03 0.10573015696E+03 0.10539591040E+03 0.10452930085E+03 0.10234812757E+03
 0.98071299069E+02 0.91134702868E+02 0.81480086699E+02 0.69673542966E+02 0.56802163725E+02
 0.44186279830E+02 0.33019770057E+02 0.24074698491E+02 0.17567989909E+02 0.13210815263E+02
 0.10389332141E+02 0.85187008822E+01 0.73556265497E+01 0.67319105550E+01 0.65367036429E+01
 0.67319116333E+01 0.73556279896E+01 0.85187016901E+01 0.10389331690E+02 0.13210813737E+02
 0.17567988300E+02 0.24074698053E+02 0.33019771493E+02 0.44186282566E+02 0.56802165788E+02
 0.69673541518E+02 0.81480079206E+02 0.91134688356E+02 0.98071278917E+02 0.10234810552E+03
 0.10452928198E+03 0.10539589950E+03 0.10560081044E+03 0.10421439400E+03 0.10234812757E+03
 0.98694106772E+02 0.92665423722E+02 0.84035328023E+02 0.73123335254E+02 0.60789225408E+02
 0.48231393104E+02 0.36666501042E+02 0.27014164344E+02 0.19699919723E+02 0.14629922933E+02
 0.11316532791E+02 0.91205394324E+01 0.76944663138E+01 0.68589110145E+01 0.64771281283E+01
 0.64771288997E+01 0.68589128216E+01 0.76944679501E+01 0.91205397333E+01 0.11316531411E+02
 0.14629920664E+02 0.19699918156E+02 0.27014164934E+02 0.36666504071E+02 0.48231397054E+02
 0.60789227190E+02 0.73123331299E+02 0.84035315853E+02 0.92665403382E+02 0.98694081333E+02
 0.10234810254E+03 0.10421437567E+03 0.10494061969E+03 0.10494062641E+03 0.10136578373E+03
 0.98071299069E+02 0.92665423722E+02 0.84872446222E+02 0.74846044552E+02 0.63234778551E+02
 0.51066623801E+02 0.39492557521E+02 0.29487759051E+02 0.21622266508E+02 0.15975333970E+02
 0.12201987321E+02 0.97083979697E+01 0.80404789398E+01 0.70052957901E+01 0.64503018466E+01
 0.62765699456E+01 0.64503033586E+01 0.70052978320E+01 0.80404801409E+01 0.97083974188E+01
 0.12201985209E+02 0.15975331619E+02 0.21622265714E+02 0.29487761002E+02 0.39492561879E+02
 0.51066628383E+02 0.63234779965E+02 0.74846039542E+02 0.84872433209E+02 0.92665403904E+02
 0.98071276407E+02 0.10136576387E+03 0.10304196700E+03 0.10354236509E+03 0.10304197860E+03
 0.96064147758E+02 0.91134702868E+02 0.84035328023E+02 0.74846044552E+02 0.64056958049E+02
 0.52522486141E+02 0.41275527505E+02 0.31270196323E+02 0.23150677794E+02 0.17127526223E+02
 0.12991957948E+02 0.10242338276E+02 0.83702064347E+01 0.71580075357E+01 0.64482327621E+01
 0.61237705865E+01 0.61237713365E+01 0.64482345473E+01 0.71580092164E+01 0.83702068807E+01
 0.10242337056E+02 0.12991955696E+02 0.17127524391E+02 0.23150677941E+02 0.31270199180E+02
 0.41275532385E+02 0.52522490950E+02 0.64056960031E+02 0.74846041480E+02 0.84035319266E+02
 0.91134689981E+02 0.96064134091E+02 0.99050508823E+02 0.10042761519E+03 0.10042761908E+03
 0.99050519226E+02 0.87909872184E+02 0.81480086699E+02 0.73123335254E+02 0.63234778551E+02
 0.52522486141E+02 0.41884143131E+02 0.32202139705E+02 0.24133477105E+02 0.17971293930E+02
 0.13620748777E+02 0.10683312120E+02 0.86589726524E+01 0.73026672939E+01 0.64618427230E+01
 0.60106008383E+01 0.58691910438E+01 0.60106018903E+01 0.64618442059E+01 0.73026682998E+01
 0.86589724952E+01 0.10683310746E+02 0.13620746882E+02 0.17971292665E+02 0.24133477556E+02
 0.32202142326E+02 0.41884147461E+02 0.52522490910E+02 0.63234782180E+02 0.73123336533E+02
 0.81480085330E+02 0.87909868927E+02 0.92331463612E+02 0.94868822644E+02 0.95689961165E+02
 0.94868824974E+02 0.92331467236E+02 0.77120287226E+02 0.69673542966E+02 0.60789225408E+02
 0.51066623801E+02 0.41275527505E+02 0.32202139705E+02 0.24472367834E+02 0.18417357599E+02
 0.14026922737E+02 0.10998849420E+02 0.88839249185E+01 0.74253687201E+01 0.64823763110E+01
 0.59291631078E+01 0.56756132082E+01 0.56756135242E+01 0.59291638910E+01 0.64823771559E+01
 0.74253691458E+01 0.88839245996E+01 0.10998848339E+02 0.14026921246E+02 0.18417356309E+02
 0.24472367438E+02 0.32202140748E+02 0.41275530202E+02 0.51066628009E+02 0.60789230628E+02
 0.69673548515E+02 0.77120292391E+02 0.82777872388E+02 0.86523921179E+02 0.88374644005E+02
 0.88374643084E+02 0.86523918503E+02 0.82777868233E+02 0.64545669809E+02 0.56802163725E+02
 0.48231393104E+02 0.39492557521E+02 0.31270196323E+02 0.24133477105E+02 0.18417357599E+02
 0.14167447636E+02 0.11163934281E+02 0.90267576239E+01 0.75143016079E+01 0.65024510637E+01
 0.58730277110E+01 0.55335513663E+01 0.54267976688E+01 0.55335514377E+01 0.58730278788E+01
 0.65024513175E+01 0.75143018242E+01 0.90267575524E+01 0.11163933613E+02 0.14167446180E+02
 0.18417355468E+02 0.24133474815E+02 0.31270194766E+02 0.39492557668E+02 0.48231395705E+02
 0.56802168911E+02 0.64545676911E+02 0.70940595196E+02 0.75652784294E+02 0.78516753438E+02
 0.79474996820E+02 0.78516749715E+02 0.75652777805E+02 0.70940587538E+02 0.51460498400E+02
 0.44186279830E+02 0.36666501042E+02 0.29487759051E+02 0.23150677794E+02 0.17971293930E+02
 0.14026922737E+02 0.11163934281E+02 0.90757159261E+01 0.75609757899E+01 0.65166534898E+01
 0.58377272762E+01 0.54360978116E+01 0.52506914684E+01 0.52506912488E+01 0.54360973206E+01
 0.58377268778E+01 0.65166535091E+01 0.75609762150E+01 0.90757163326E+01 0.11163933946E+02
 0.14026921003E+02 0.17971290604E+02 0.23150673362E+02 0.29487754694E+02 0.36666498166E+02
 0.44186279578E+02 0.51460501117E+02 0.57925259596E+02 0.63122229301E+02 0.66734922130E+02
 0.68580755576E+02 0.68580753905E+02 0.66734917714E+02 0.63122223655E+02 0.57925254622E+02
 0.39211086593E+02 0.33019770057E+02 0.27014164344E+02 0.21622266508E+02 0.17127526223E+02
 0.13620748777E+02 0.10998849420E+02 0.90267576239E+01 0.75609757899E+01 0.65217444146E+01