   1   1   1   0
  0.1206789E+02  0.2574633E-09  0.2574633E-09  0.2574633E-09  0.5000000E-15
  1.000000000000000E-004
  CAR 
 Pt-fcc                                  
     82.91669982    -43.04007944  301     17.06522617      1.00000000
    -43.040  0.0000E+00  0.0000E+00
    -42.620  0.0000E+00  0.0000E+00
    -42.200  0.0000E+00  0.0000E+00
    -41.781  0.0000E+00  0.0000E+00
    -41.361  0.0000E+00  0.0000E+00
    -40.941  0.0000E+00  0.0000E+00
    -40.521  0.0000E+00  0.0000E+00
    -40.101  0.0000E+00  0.0000E+00
    -39.681  0.0000E+00  0.0000E+00
    -39.261  0.0000E+00  0.0000E+00
    -38.842  0.0000E+00  0.0000E+00
    -38.422  0.0000E+00  0.0000E+00
    -38.002  0.0000E+00  0.0000E+00
    -37.582  0.5987E-17  0.2514E-17
    -37.162  0.1090E-01  0.4576E-02
    -36.742  0.4188E-01  0.2374E-01
    -36.322  0.7880E-01  0.5796E-01
    -35.903  0.2058E-02  0.6000E-01
    -35.483  0.0000E+00  0.6000E-01
    -35.063  0.0000E+00  0.6000E-01
    -34.643  0.0000E+00  0.6000E-01
    -34.223  0.0000E+00  0.6000E-01
    -33.803  0.0000E+00  0.6000E-01
    -33.383  0.0000E+00  0.6000E-01
    -32.964  0.0000E+00  0.6000E-01
    -32.544  0.0000E+00  0.6000E-01
    -32.124  0.0000E+00  0.6000E-01
    -31.704  0.0000E+00  0.6000E-01
    -31.284  0.0000E+00  0.6000E-01
    -30.864  0.0000E+00  0.6000E-01
    -30.444  0.0000E+00  0.6000E-01
    -30.025  0.0000E+00  0.6000E-01
    -29.605  0.0000E+00  0.6000E-01
    -29.185  0.0000E+00  0.6000E-01
    -28.765  0.0000E+00  0.6000E-01
    -28.345  0.0000E+00  0.6000E-01
    -27.925  0.0000E+00  0.6000E-01
    -27.505  0.0000E+00  0.6000E-01
    -27.086  0.0000E+00  0.6000E-01
    -26.666  0.0000E+00  0.6000E-01
    -26.246  0.0000E+00  0.6000E-01
    -25.826  0.0000E+00  0.6000E-01
    -25.406  0.0000E+00  0.6000E-01
    -24.986  0.0000E+00  0.6000E-01
    -24.566  0.0000E+00  0.6000E-01
    -24.147  0.0000E+00  0.6000E-01
    -23.727  0.0000E+00  0.6000E-01
    -23.307  0.0000E+00  0.6000E-01
    -22.887  0.0000E+00  0.6000E-01
    -22.467  0.0000E+00  0.6000E-01
    -22.047  0.0000E+00  0.6000E-01
    -21.627  0.0000E+00  0.6000E-01
    -21.208  0.0000E+00  0.6000E-01
    -20.788  0.0000E+00  0.6000E-01
    -20.368  0.0000E+00  0.6000E-01
    -19.948  0.0000E+00  0.6000E-01
    -19.528  0.0000E+00  0.6000E-01
    -19.108  0.0000E+00  0.6000E-01
    -18.688  0.0000E+00  0.6000E-01
    -18.269  0.0000E+00  0.6000E-01
    -17.849  0.0000E+00  0.6000E-01
    -17.429  0.0000E+00  0.6000E-01
    -17.009  0.0000E+00  0.6000E-01
    -16.589  0.0000E+00  0.6000E-01
    -16.169  0.0000E+00  0.6000E-01
    -15.749  0.0000E+00  0.6000E-01
    -15.330  0.0000E+00  0.6000E-01
    -14.910  0.0000E+00  0.6000E-01
    -14.490  0.0000E+00  0.6000E-01
    -14.070  0.0000E+00  0.6000E-01
    -13.650  0.0000E+00  0.6000E-01
    -13.230  0.0000E+00  0.6000E-01
    -12.810  0.0000E+00  0.6000E-01
    -12.391  0.0000E+00  0.6000E-01
    -11.971  0.0000E+00  0.6000E-01
    -11.551  0.0000E+00  0.6000E-01
    -11.131  0.0000E+00  0.6000E-01
    -10.711  0.0000E+00  0.6000E-01
    -10.291  0.0000E+00  0.6000E-01
     -9.871  0.0000E+00  0.6000E-01
     -9.452  0.0000E+00  0.6000E-01
     -9.032  0.0000E+00  0.6000E-01
     -8.612  0.0000E+00  0.6000E-01
     -8.192  0.0000E+00  0.6000E-01
     -7.772  0.0000E+00  0.6000E-01
     -7.352  0.0000E+00  0.6000E-01
     -6.932  0.0000E+00  0.6000E-01
     -6.513  0.0000E+00  0.6000E-01
     -6.093  0.0000E+00  0.6000E-01
     -5.673  0.0000E+00  0.6000E-01
     -5.253  0.0000E+00  0.6000E-01
     -4.833  0.0000E+00  0.6000E-01
     -4.413  0.0000E+00  0.6000E-01
     -3.993  0.0000E+00  0.6000E-01
     -3.574  0.0000E+00  0.6000E-01
     -3.154  0.0000E+00  0.6000E-01
     -2.734  0.0000E+00  0.6000E-01
     -2.314  0.0000E+00  0.6000E-01
     -1.894  0.0000E+00  0.6000E-01
     -1.474  0.0000E+00  0.6000E-01
     -1.054  0.0000E+00  0.6000E-01
     -0.635  0.0000E+00  0.6000E-01
     -0.215  0.0000E+00  0.6000E-01
      0.205  0.0000E+00  0.6000E-01
      0.625  0.0000E+00  0.6000E-01
      1.045  0.0000E+00  0.6000E-01
      1.465  0.0000E+00  0.6000E-01
      1.885  0.0000E+00  0.6000E-01
      2.304  0.0000E+00  0.6000E-01
      2.724  0.0000E+00  0.6000E-01
      3.144  0.0000E+00  0.6000E-01
      3.564  0.0000E+00  0.6000E-01
      3.984  0.6709E-12  0.6000E-01
      4.404  0.9539E-04  0.6004E-01
      4.823  0.3727E-03  0.6020E-01
      5.243  0.3770E-03  0.6044E-01
      5.663  0.6142E-03  0.6070E-01
      6.083  0.7792E-03  0.6103E-01
      6.503  0.1171E-02  0.6153E-01
      6.923  0.1372E-02  0.6214E-01
      7.343  0.3707E-02  0.6372E-01
      7.762  0.7041E-02  0.6683E-01
      8.182  0.1057E-01  0.7162E-01
      8.602  0.1161E-01  0.7671E-01
      9.022  0.8067E-02  0.8041E-01
      9.442  0.8955E-02  0.8432E-01
      9.862  0.7664E-02  0.8771E-01
     10.282  0.9592E-02  0.9203E-01
     10.701  0.7696E-02  0.9564E-01
     11.121  0.9897E-02  0.1000E+00
     11.541  0.1121E-01  0.1050E+00
     11.961  0.1255E-01  0.1106E+00
     12.381  0.1542E-01  0.1179E+00
     12.801  0.8578E-02  0.1221E+00
     13.221  0.7207E-02  0.1253E+00
     13.640  0.7617E-02  0.1287E+00
     14.060  0.1007E-01  0.1331E+00
     14.480  0.8747E-02  0.1373E+00
     14.900  0.8627E-02  0.1411E+00
     15.320  0.6253E-02  0.1439E+00
     15.740  0.8537E-02  0.1477E+00
     16.160  0.5289E-02  0.1505E+00
     16.579  0.9584E-02  0.1546E+00
     16.999  0.1017E-01  0.1591E+00
     17.419  0.1232E-01  0.1645E+00
     17.839  0.4504E-02  0.1664E+00
     18.259  0.1140E-02  0.1669E+00
     18.679  0.4234E-02  0.1687E+00
     19.099  0.1276E-02  0.1693E+00
     19.518  0.8829E-03  0.1697E+00
     19.938  0.4268E-02  0.1715E+00
     20.358  0.1003E-02  0.1719E+00
     20.778  0.2322E-02  0.1729E+00
     21.198  0.1983E-02  0.1738E+00
     21.618  0.2878E-02  0.1750E+00
     22.038  0.1614E-02  0.1758E+00
     22.457  0.1995E-02  0.1766E+00
     22.877  0.2015E-02  0.1775E+00
     23.297  0.1052E-02  0.1780E+00
     23.717  0.1393E-02  0.1788E+00
     24.137  0.1694E-02  0.1795E+00
     24.557  0.2528E-02  0.1809E+00
     24.977  0.3242E-02  0.1823E+00
     25.396  0.3531E-02  0.1838E+00
     25.816  0.1819E-02  0.1846E+00
     26.236  0.3789E-02  0.1863E+00
     26.656  0.1946E-02  0.1872E+00
     27.076  0.1933E-02  0.1881E+00
     27.496  0.4453E-02  0.1899E+00
     27.916  0.2121E-02  0.1910E+00
     28.335  0.1594E-02  0.1917E+00
     28.755  0.3150E-02  0.1931E+00
     29.175  0.3546E-02  0.1946E+00
     29.595  0.3399E-02  0.1960E+00
     30.015  0.2676E-02  0.1974E+00
     30.435  0.5286E-02  0.1996E+00
     30.855  0.1290E-02  0.2002E+00
     31.274  0.5434E-02  0.2025E+00
     31.694  0.7899E-02  0.2058E+00
     32.114  0.4374E-02  0.2079E+00
     32.534  0.6653E-02  0.2108E+00
     32.954  0.8572E-02  0.2145E+00
     33.374  0.5437E-02  0.2171E+00
     33.794  0.5638E-02  0.2200E+00
     34.213  0.5799E-02  0.2224E+00
     34.633  0.8054E-02  0.2260E+00
     35.053  0.6705E-02  0.2289E+00
     35.473  0.4084E-02  0.2308E+00
     35.893  0.3474E-02  0.2324E+00
     36.313  0.4417E-02  0.2342E+00
     36.733  0.1792E-02  0.2351E+00
     37.152  0.2556E-02  0.2362E+00
     37.572  0.5228E-02  0.2384E+00
     37.992  0.6768E-02  0.2413E+00
     38.412  0.5125E-02  0.2439E+00
     38.832  0.4635E-02  0.2459E+00
     39.252  0.7100E-02  0.2490E+00
     39.672  0.4784E-02  0.2510E+00
     40.091  0.4664E-02  0.2533E+00
     40.511  0.5682E-02  0.2559E+00
     40.931  0.4047E-02  0.2577E+00
     41.351  0.1147E-02  0.2582E+00
     41.771  0.3809E-02  0.2599E+00
     42.191  0.2758E-02  0.2611E+00
     42.611  0.2927E-02  0.2624E+00
     43.030  0.3035E-02  0.2640E+00
     43.450  0.6216E-02  0.2667E+00
     43.870  0.4229E-02  0.2685E+00
     44.290  0.7386E-02  0.2718E+00
     44.710  0.4893E-02  0.2741E+00
     45.130  0.5119E-02  0.2762E+00
     45.550  0.2876E-02  0.2777E+00
     45.969  0.5689E-02  0.2802E+00
     46.389  0.5037E-02  0.2826E+00
     46.809  0.7925E-02  0.2862E+00
     47.229  0.9176E-02  0.2900E+00
     47.649  0.5497E-02  0.2925E+00
     48.069  0.7595E-02  0.2959E+00
     48.489  0.8781E-02  0.2997E+00
     48.908  0.5059E-02  0.3022E+00
     49.328  0.6902E-02  0.3053E+00
     49.748  0.7206E-02  0.3085E+00
     50.168  0.4816E-02  0.3107E+00
     50.588  0.5798E-02  0.3133E+00
     51.008  0.2613E-02  0.3147E+00
     51.428  0.2607E-02  0.3159E+00
     51.847  0.8260E-02  0.3194E+00
     52.267  0.6763E-02  0.3224E+00
     52.687  0.5320E-02  0.3248E+00
     53.107  0.7583E-02  0.3281E+00
     53.527  0.8254E-02  0.3318E+00
     53.947  0.4159E-02  0.3337E+00
     54.366  0.5211E-02  0.3361E+00
     54.786  0.5604E-02  0.3386E+00
     55.206  0.5641E-02  0.3411E+00
     55.626  0.6389E-02  0.3438E+00
     56.046  0.5136E-02  0.3461E+00
     56.466  0.7524E-02  0.3496E+00
     56.886  0.5454E-01  0.3729E+00
     57.305  0.9147E-02  0.3774E+00
     57.725  0.7926E-02  0.3810E+00
     58.145  0.3779E-02  0.3829E+00
     58.565  0.4093E-02  0.3847E+00
     58.985  0.1012E-01  0.3891E+00
     59.405  0.5834E-02  0.3919E+00
     59.825  0.7917E-02  0.3957E+00
     60.244  0.7026E-02  0.3989E+00
     60.664  0.6022E-02  0.4016E+00
     61.084  0.4264E-02  0.4034E+00
     61.504  0.6881E-02  0.4063E+00
     61.924  0.8153E-02  0.4101E+00
     62.344  0.3535E-02  0.4117E+00
     62.764  0.7810E-02  0.4151E+00
     63.183  0.1030E-01  0.4195E+00
     63.603  0.3189E-02  0.4210E+00
     64.023  0.8926E-02  0.4249E+00
     64.443  0.4625E-02  0.4271E+00
     64.863  0.6562E-02  0.4299E+00
     65.283  0.6400E-02  0.4327E+00
     65.703  0.7700E-02  0.4361E+00
     66.122  0.4567E-02  0.4382E+00
     66.542  0.3430E-02  0.4398E+00
     66.962  0.9575E-02  0.4440E+00
     67.382  0.9465E-02  0.4480E+00
     67.802  0.6805E-02  0.4510E+00
     68.222  0.8927E-02  0.4550E+00
     68.642  0.6776E-02  0.4580E+00
     69.061  0.8511E-02  0.4617E+00
     69.481  0.6625E-02  0.4646E+00
     69.901  0.5021E-02  0.4673E+00
     70.321  0.5328E-02  0.4696E+00
     70.741  0.6280E-02  0.4725E+00
     71.161  0.3609E-02  0.4743E+00
     71.581  0.3129E-02  0.4757E+00
     72.000  0.1880E-02  0.4765E+00
     72.420  0.1703E-02  0.4772E+00
     72.840  0.8622E-03  0.4776E+00
     73.260  0.1424E-02  0.4782E+00
     73.680  0.1008E-02  0.4786E+00
     74.100  0.8224E-03  0.4792E+00
     74.520  0.5716E-03  0.4794E+00
     74.939  0.5610E-03  0.4796E+00
     75.359  0.2858E-03  0.4798E+00
     75.779  0.0000E+00  0.4798E+00
     76.199  0.2816E-03  0.4799E+00
     76.619  0.0000E+00  0.4799E+00
     77.039  0.2247E-08  0.4799E+00
     77.459  0.2858E-03  0.4800E+00
     77.878  0.0000E+00  0.4800E+00
     78.298  0.0000E+00  0.4800E+00
     78.718  0.0000E+00  0.4800E+00
     79.138  0.0000E+00  0.4800E+00
     79.558  0.0000E+00  0.4800E+00
     79.978  0.0000E+00  0.4800E+00
     80.398  0.0000E+00  0.4800E+00
     80.817  0.0000E+00  0.4800E+00
     81.237  0.0000E+00  0.4800E+00
     81.657  0.0000E+00  0.4800E+00
     82.077  0.0000E+00  0.4800E+00
     82.497  0.0000E+00  0.4800E+00
     82.917  0.0000E+00  0.4800E+00
     82.91669982    -43.04007944  301     17.06522617      1.00000000
    -43.040  0.0000E+00  0.0000E+00  0.0000E+00  0.0000E+00  0.0000E+00  0.0000E+00  0.0000E+00  0.0000E+00  0.0000E+00
    -42.620  0.0000E+00  0.0000E+00  0.0000E+00  0.0000E+00  0.0000E+00  0.0000E+00  0.0000E+00  0.0000E+00  0.0000E+00
    -42.200  0.0000E+00  0.0000E+00  0.0000E+00  0.0000E+00  0.0000E+00  0.0000E+00  0.0000E+00  0.0000E+00  0.0000E+00
    -41.781  0.0000E+00  0.0000E+00  0.0000E+00  0.0000E+00  0.0000E+00  0.0000E+00  0.0000E+00  0.0000E+00  0.0000E+00
    -41.361  0.0000E+00  0.0000E+00  0.0000E+00  0.0000E+00  0.0000E+00  0.0000E+00  0.0000E+00  0.0000E+00  0.0000E+00
    -40.941  0.0000E+00  0.0000E+00  0.0000E+00  0.0000E+00  0.0000E+00  0.0000E+00  0.0000E+00  0.0000E+00  0.0000E+00
    -40.521  0.0000E+00  0.0000E+00  0.0000E+00  0.0000E+00  0.0000E+00  0.0000E+00  0.0000E+00  0.0000E+00  0.0000E+00
    -40.101  0.0000E+00  0.0000E+00  0.0000E+00  0.0000E+00  0.0000E+00  0.0000E+00  0.0000E+00  0.0000E+00  0.0000E+00
    -39.681  0.0000E+00  0.0000E+00  0.0000E+00  0.0000E+00  0.0000E+00  0.0000E+00  0.0000E+00  0.0000E+00  0.0000E+00
    -39.261  0.0000E+00  0.0000E+00  0.0000E+00  0.0000E+00  0.0000E+00  0.0000E+00  0.0000E+00  0.0000E+00  0.0000E+00
    -38.842  0.0000E+00  0.0000E+00  0.0000E+00  0.0000E+00  0.0000E+00  0.0000E+00  0.0000E+00  0.0000E+00  0.0000E+00
    -38.422  0.0000E+00  0.0000E+00  0.0000E+00  0.0000E+00  0.0000E+00  0.0000E+00  0.0000E+00  0.0000E+00  0.0000E+00
    -38.002  0.0000E+00  0.0000E+00  0.0000E+00  0.0000E+00  0.0000E+00  0.0000E+00  0.0000E+00  0.0000E+00  0.0000E+00
    -37.582  0.3973E-20  0.1943E-15  0.1943E-15  0.1943E-15  0.2811E-20  0.2811E-20  0.2360E-20  0.2811E-20  0.2360E-20
    -37.162  0.8519E-04  0.3549E+00  0.3549E+00  0.3549E+00  0.3970E-04  0.3970E-04  0.2041E-04  0.3970E-04  0.2041E-04
    -36.742  0.8995E-03  0.1372E+01  0.1372E+01  0.1372E+01  0.3095E-03  0.3095E-03  0.1122E-03  0.3095E-03  0.1122E-03
    -36.322  0.2908E-03  0.2612E+01  0.2612E+01  0.2612E+01  0.3503E-03  0.3503E-03  0.2526E-03  0.3503E-03  0.2526E-03
    -35.903  0.9351E-06  0.6858E-01  0.6858E-01  0.6858E-01  0.1668E-05  0.1668E-05  0.7178E-06  0.1668E-05  0.7178E-06
    -35.483  0.0000E+00  0.0000E+00  0.0000E+00  0.0000E+00  0.0000E+00  0.0000E+00  0.0000E+00  0.0000E+00  0.0000E+00
    -35.063  0.0000E+00  0.0000E+00  0.0000E+00  0.0000E+00  0.0000E+00  0.0000E+00  0.0000E+00  0.0000E+00  0.0000E+00
    -34.643  0.0000E+00  0.0000E+00  0.0000E+00  0.0000E+00  0.0000E+00  0.0000E+00  0.0000E+00  0.0000E+00  0.0000E+00
    -34.223  0.0000E+00  0.0000E+00  0.0000E+00  0.0000E+00  0.0000E+00  0.0000E+00  0.0000E+00  0.0000E+00  0.0000E+00
    -33.803  0.0000E+00  0.0000E+00  0.0000E+00  0.0000E+00  0.0000E+00  0.0000E+00  0.0000E+00  0.0000E+00  0.0000E+00
    -33.383  0.0000E+00  0.0000E+00  0.0000E+00  0.0000E+00  0.0000E+00  0.0000E+00  0.0000E+00  0.0000E+00  0.0000E+00
    -32.964  0.0000E+00  0.0000E+00  0.0000E+00  0.0000E+00  0.0000E+00  0.0000E+00  0.0000E+00  0.0000E+00  0.0000E+00
    -32.544  0.0000E+00  0.0000E+00  0.0000E+00  0.0000E+00  0.0000E+00  0.0000E+00  0.0000E+00  0.0000E+00  0.0000E+00
    -32.124  0.0000E+00  0.0000E+00  0.0000E+00  0.0000E+00  0.0000E+00  0.0000E+00  0.0000E+00  0.0000E+00  0.0000E+00
    -31.704  0.0000E+00  0.0000E+00  0.0000E+00  0.0000E+00  0.0000E+00  0.0000E+00  0.0000E+00  0.0000E+00  0.0000E+00
    -31.284  0.0000E+00  0.0000E+00  0.0000E+00  0.0000E+00  0.0000E+00  0.0000E+00  0.0000E+00  0.0000E+00  0.0000E+00
    -30.864  0.0000E+00  0.0000E+00  0.0000E+00  0.0000E+00  0.0000E+00  0.0000E+00  0.0000E+00  0.0000E+00  0.0000E+00
    -30.444  0.0000E+00  0.0000E+00  0.0000E+00  0.0000E+00  0.0000E+00  0.0000E+00  0.0000E+00  0.0000E+00  0.0000E+00
    -30.025  0.0000E+00  0.0000E+00  0.0000E+00  0.0000E+00  0.0000E+00  0.0000E+00  0.0000E+00  0.0000E+00  0.0000E+00
    -29.605  0.0000E+00  0.0000E+00  0.0000E+00  0.0000E+00  0.0000E+00  0.0000E+00  0.0000E+00  0.0000E+00  0.0000E+00
    -29.185  0.0000E+00  0.0000E+00  0.0000E+00  0.0000E+00  0.0000E+00  0.0000E+00  0.0000E+00  0.0000E+00  0.0000E+00
    -28.765  0.0000E+00  0.0000E+00  0.0000E+00  0.0000E+00  0.0000E+00  0.0000E+00  0.0000E+00  0.0000E+00  0.0000E+00
    -28.345  0.0000E+00  0.0000E+00  0.0000E+00  0.0000E+00  0.0000E+00  0.0000E+00  0.0000E+00  0.0000E+00  0.0000E+00
    -27.925  0.0000E+00  0.0000E+00  0.0000E+00  0.0000E+00  0.0000E+00  0.0000E+00  0.0000E+00  0.0000E+00  0.0000E+00
    -27.505  0.0000E+00  0.0000E+00  0.0000E+00  0.0000E+00  0.0000E+00  0.0000E+00  0.0000E+00  0.0000E+00  0.0000E+00
    -27.086  0.0000E+00  0.0000E+00  0.0000E+00  0.0000E+00  0.0000E+00  0.0000E+00  0.0000E+00  0.0000E+00  0.0000E+00
    -26.666  0.0000E+00  0.0000E+00  0.0000E+00  0.0000E+00  0.0000E+00  0.0000E+00  0.0000E+00  0.0000E+00  0.0000E+00
    -26.246  0.0000E+00  0.0000E+00  0.0000E+00  0.0000E+00  0.0000E+00  0.0000E+00  0.0000E+00  0.0000E+00  0.0000E+00
    -25.826  0.0000E+00  0.0000E+00  0.0000E+00  0.0000E+00  0.0000E+00  0.0000E+00  0.0000E+00  0.0000E+00  0.0000E+00
    -25.406  0.0000E+00  0.0000E+00  0.0000E+00  0.0000E+00  0.0000E+00  0.0000E+00  0.0000E+00  0.0000E+00  0.0000E+00
    -24.986  0.0000E+00  0.0000E+00  0.0000E+00  0.0000E+00  0.0000E+00  0.0000E+00  0.0000E+00  0.0000E+00  0.0000E+00
    -24.566  0.0000E+00  0.0000E+00  0.0000E+00  0.0000E+00  0.0000E+00  0.0000E+00  0.0000E+00  0.0000E+00  0.0000E+00
    -24.147  0.0000E+00  0.0000E+00  0.0000E+00  0.0000E+00  0.0000E+00  0.0000E+00  0.0000E+00  0.0000E+00  0.0000E+00
    -23.727  0.0000E+00  0.0000E+00  0.0000E+00  0.0000E+00  0.0000E+00  0.0000E+00  0.0000E+00  0.0000E+00  0.0000E+00
    -23.307  0.0000E+00  0.0000E+00  0.0000E+00  0.0000E+00  0.0000E+00  0.0000E+00  0.0000E+00  0.0000E+00  0.0000E+00
    -22.887  0.0000E+00  0.0000E+00  0.0000E+00  0.0000E+00  0.0000E+00  0.0000E+00  0.0000E+00  0.0000E+00  0.0000E+00
    -22.467  0.0000E+00  0.0000E+00  0.0000E+00  0.0000E+00  0.0000E+00  0.0000E+00  0.0000E+00  0.0000E+00  0.0000E+00
    -22.047  0.0000E+00  0.0000E+00  0.0000E+00  0.0000E+00  0.0000E+00  0.0000E+00  0.0000E+00  0.0000E+00  0.0000E+00
    -21.627  0.0000E+00  0.0000E+00  0.0000E+00  0.0000E+00  0.0000E+00  0.0000E+00  0.0000E+00  0.0000E+00  0.0000E+00
    -21.208  0.0000E+00  0.0000E+00  0.0000E+00  0.0000E+00  0.0000E+00  0.0000E+00  0.0000E+00  0.0000E+00  0.0000E+00
    -20.788  0.0000E+00  0.0000E+00  0.0000E+00  0.0000E+00  0.0000E+00  0.0000E+00  0.0000E+00  0.0000E+00  0.0000E+00
    -20.368  0.0000E+00  0.0000E+00  0.0000E+00  0.0000E+00  0.0000E+00  0.0000E+00  0.0000E+00  0.0000E+00  0.0000E+00
    -19.948  0.0000E+00  0.0000E+00  0.0000E+00  0.0000E+00  0.0000E+00  0.0000E+00  0.0000E+00  0.0000E+00  0.0000E+00
    -19.528  0.0000E+00  0.0000E+00  0.0000E+00  0.0000E+00  0.0000E+00  0.0000E+00  0.0000E+00  0.0000E+00  0.0000E+00
    -19.108  0.0000E+00  0.0000E+00  0.0000E+00  0.0000E+00  0.0000E+00  0.0000E+00  0.0000E+00  0.0000E+00  0.0000E+00
    -18.688  0.0000E+00  0.0000E+00  0.0000E+00  0.0000E+00  0.0000E+00  0.0000E+00  0.0000E+00  0.0000E+00  0.0000E+00
    -18.269  0.0000E+00  0.0000E+00  0.0000E+00  0.0000E+00  0.0000E+00  0.0000E+00  0.0000E+00  0.0000E+00  0.0000E+00
    -17.849  0.0000E+00  0.0000E+00  0.0000E+00  0.0000E+00  0.0000E+00  0.0000E+00  0.0000E+00  0.0000E+00  0.0000E+00
    -17.429  0.0000E+00  0.0000E+00  0.0000E+00  0.0000E+00  0.0000E+00  0.0000E+00  0.0000E+00  0.0000E+00  0.0000E+00
    -17.009  0.0000E+00  0.0000E+00  0.0000E+00  0.0000E+00  0.0000E+00  0.0000E+00  0.0000E+00  0.0000E+00  0.0000E+00
    -16.589  0.0000E+00  0.0000E+00  0.0000E+00  0.0000E+00  0.0000E+00  0.0000E+00  0.0000E+00  0.0000E+00  0.0000E+00
    -16.169  0.0000E+00  0.0000E+00  0.0000E+00  0.0000E+00  0.0000E+00  0.0000E+00  0.0000E+00  0.0000E+00  0.0000E+00
    -15.749  0.0000E+00  0.0000E+00  0.0000E+00  0.0000E+00  0.0000E+00  0.0000E+00  0.0000E+00  0.0000E+00  0.0000E+00
    -15.330  0.0000E+00  0.0000E+00  0.0000E+00  0.0000E+00  0.0000E+00  0.0000E+00  0.0000E+00  0.0000E+00  0.0000E+00
    -14.910  0.0000E+00  0.0000E+00  0.0000E+00  0.0000E+00  0.0000E+00  0.0000E+00  0.0000E+00  0.0000E+00  0.0000E+00
    -14.490  0.0000E+00  0.0000E+00  0.0000E+00  0.0000E+00  0.0000E+00  0.0000E+00  0.0000E+00  0.0000E+00  0.0000E+00
    -14.070  0.0000E+00  0.0000E+00  0.0000E+00  0.0000E+00  0.0000E+00  0.0000E+00  0.0000E+00  0.0000E+00  0.0000E+00
    -13.650  0.0000E+00  0.0000E+00  0.0000E+00  0.0000E+00  0.0000E+00  0.0000E+00  0.0000E+00  0.0000E+00  0.0000E+00
    -13.230  0.0000E+00  0.0000E+00  0.0000E+00  0.0000E+00  0.0000E+00  0.0000E+00  0.0000E+00  0.0000E+00  0.0000E+00
    -12.810  0.0000E+00  0.0000E+00  0.0000E+00  0.0000E+00  0.0000E+00  0.0000E+00  0.0000E+00  0.0000E+00  0.0000E+00
    -12.391  0.0000E+00  0.0000E+00  0.0000E+00  0.0000E+00  0.0000E+00  0.0000E+00  0.0000E+00  0.0000E+00  0.0000E+00
    -11.971  0.0000E+00  0.0000E+00  0.0000E+00  0.0000E+00  0.0000E+00  0.0000E+00  0.0000E+00  0.0000E+00  0.0000E+00
    -11.551  0.0000E+00  0.0000E+00  0.0000E+00  0.0000E+00  0.0000E+00  0.0000E+00  0.0000E+00  0.0000E+00  0.0000E+00
    -11.131  0.0000E+00  0.0000E+00  0.0000E+00  0.0000E+00  0.0000E+00  0.0000E+00  0.0000E+00  0.0000E+00  0.0000E+00
    -10.711  0.0000E+00  0.0000E+00  0.0000E+00  0.0000E+00  0.0000E+00  0.0000E+00  0.0000E+00  0.0000E+00  0.0000E+00
    -10.291  0.0000E+00  0.0000E+00  0.0000E+00  0.0000E+00  0.0000E+00  0.0000E+00  0.0000E+00  0.0000E+00  0.0000E+00
     -9.871  0.0000E+00  0.0000E+00  0.0000E+00  0.0000E+00  0.0000E+00  0.0000E+00  0.0000E+00  0.0000E+00  0.0000E+00
     -9.452  0.0000E+00  0.0000E+00  0.0000E+00  0.0000E+00  0.0000E+00  0.0000E+00  0.0000E+00  0.0000E+00  0.0000E+00
     -9.032  0.0000E+00  0.0000E+00  0.0000E+00  0.0000E+00  0.0000E+00  0.0000E+00  0.0000E+00  0.0000E+00  0.0000E+00
     -8.612  0.0000E+00  0.0000E+00  0.0000E+00  0.0000E+00  0.0000E+00  0.0000E+00  0.0000E+00  0.0000E+00  0.0000E+00
     -8.192  0.0000E+00  0.0000E+00  0.0000E+00  0.0000E+00  0.0000E+00  0.0000E+00  0.0000E+00  0.0000E+00  0.0000E+00
     -7.772  0.0000E+00  0.0000E+00  0.0000E+00  0.0000E+00  0.0000E+00  0.0000E+00  0.0000E+00  0.0000E+00  0.0000E+00
     -7.352  0.0000E+00  0.0000E+00  0.0000E+00  0.0000E+00  0.0000E+00  0.0000E+00  0.0000E+00  0.0000E+00  0.0000E+00
     -6.932  0.0000E+00  0.0000E+00  0.0000E+00  0.0000E+00  0.0000E+00  0.0000E+00  0.0000E+00  0.0000E+00  0.0000E+00
     -6.513  0.0000E+00  0.0000E+00  0.0000E+00  0.0000E+00  0.0000E+00  0.0000E+00  0.0000E+00  0.0000E+00  0.0000E+00
     -6.093  0.0000E+00  0.0000E+00  0.0000E+00  0.0000E+00  0.0000E+00  0.0000E+00  0.0000E+00  0.0000E+00  0.0000E+00
     -5.673  0.0000E+00  0.0000E+00  0.0000E+00  0.0000E+00  0.0000E+00  0.0000E+00  0.0000E+00  0.0000E+00  0.0000E+00
     -5.253  0.0000E+00  0.0000E+00  0.0000E+00  0.0000E+00  0.0000E+00  0.0000E+00  0.0000E+00  0.0000E+00  0.0000E+00
     -4.833  0.0000E+00  0.0000E+00  0.0000E+00  0.0000E+00  0.0000E+00  0.0000E+00  0.0000E+00  0.0000E+00  0.0000E+00
     -4.413  0.0000E+00  0.0000E+00  0.0000E+00  0.0000E+00  0.0000E+00  0.0000E+00  0.0000E+00  0.0000E+00  0.0000E+00
     -3.993  0.0000E+00  0.0000E+00  0.0000E+00  0.0000E+00  0.0000E+00  0.0000E+00  0.0000E+00  0.0000E+00  0.0000E+00
     -3.574  0.0000E+00  0.0000E+00  0.0000E+00  0.0000E+00  0.0000E+00  0.0000E+00  0.0000E+00  0.0000E+00  0.0000E+00
     -3.154  0.0000E+00  0.0000E+00  0.0000E+00  0.0000E+00  0.0000E+00  0.0000E+00  0.0000E+00  0.0000E+00  0.0000E+00
     -2.734  0.0000E+00  0.0000E+00  0.0000E+00  0.0000E+00  0.0000E+00  0.0000E+00  0.0000E+00  0.0000E+00  0.0000E+00
     -2.314  0.0000E+00  0.0000E+00  0.0000E+00  0.0000E+00  0.0000E+00  0.0000E+00  0.0000E+00  0.0000E+00  0.0000E+00
     -1.894  0.0000E+00  0.0000E+00  0.0000E+00  0.0000E+00  0.0000E+00  0.0000E+00  0.0000E+00  0.0000E+00  0.0000E+00
     -1.474  0.0000E+00  0.0000E+00  0.0000E+00  0.0000E+00  0.0000E+00  0.0000E+00  0.0000E+00  0.0000E+00  0.0000E+00
     -1.054  0.0000E+00  0.0000E+00  0.0000E+00  0.0000E+00  0.0000E+00  0.0000E+00  0.0000E+00  0.0000E+00  0.0000E+00
     -0.635  0.0000E+00  0.0000E+00  0.0000E+00  0.0000E+00  0.0000E+00  0.0000E+00  0.0000E+00  0.0000E+00  0.0000E+00
     -0.215  0.0000E+00  0.0000E+00  0.0000E+00  0.0000E+00  0.0000E+00  0.0000E+00  0.0000E+00  0.0000E+00  0.0000E+00
      0.205  0.0000E+00  0.0000E+00  0.0000E+00  0.0000E+00  0.0000E+00  0.0000E+00  0.0000E+00  0.0000E+00  0.0000E+00
      0.625  0.0000E+00  0.0000E+00  0.0000E+00  0.0000E+00  0.0000E+00  0.0000E+00  0.0000E+00  0.0000E+00  0.0000E+00
      1.045  0.0000E+00  0.0000E+00  0.0000E+00  0.0000E+00  0.0000E+00  0.0000E+00  0.0000E+00  0.0000E+00  0.0000E+00
      1.465  0.0000E+00  0.0000E+00  0.0000E+00  0.0000E+00  0.0000E+00  0.0000E+00  0.0000E+00  0.0000E+00  0.0000E+00
      1.885  0.0000E+00  0.0000E+00  0.0000E+00  0.0000E+00  0.0000E+00  0.0000E+00  0.0000E+00  0.0000E+00  0.0000E+00
      2.304  0.0000E+00  0.0000E+00  0.0000E+00  0.0000E+00  0.0000E+00  0.0000E+00  0.0000E+00  0.0000E+00  0.0000E+00
      2.724  0.0000E+00  0.0000E+00  0.0000E+00  0.0000E+00  0.0000E+00  0.0000E+00  0.0000E+00  0.0000E+00  0.0000E+00
      3.144  0.0000E+00  0.0000E+00  0.0000E+00  0.0000E+00  0.0000E+00  0.0000E+00  0.0000E+00  0.0000E+00  0.0000E+00
      3.564  0.0000E+00  0.0000E+00  0.0000E+00  0.0000E+00  0.0000E+00  0.0000E+00  0.0000E+00  0.0000E+00  0.0000E+00
      3.984  0.3365E-10  0.4775E-13  0.4775E-13  0.4775E-13  0.2644E-14  0.2644E-14  0.2281E-31  0.2644E-14  0.2281E-31
      4.404  0.4785E-02  0.6812E-05  0.6812E-05  0.6812E-05  0.3786E-06  0.3786E-06  0.2401E-08  0.3786E-06  0.2401E-08
      4.823  0.1827E-01  0.1094E-03  0.1094E-03  0.1094E-03  0.1918E-04  0.1918E-04  0.6968E-05  0.1918E-04  0.6968E-05
      5.243  0.1780E-01  0.2226E-03  0.2226E-03  0.2226E-03  0.5844E-04  0.5844E-04  0.5836E-04  0.5844E-04  0.5836E-04
      5.663  0.2832E-01  0.4516E-03  0.4516E-03  0.4516E-03  0.2492E-03  0.2492E-03  0.8385E-04  0.2492E-03  0.8385E-04
      6.083  0.3440E-01  0.7353E-03  0.7353E-03  0.7353E-03  0.5489E-03  0.5489E-03  0.3230E-03  0.5489E-03  0.3230E-03
      6.503  0.4893E-01  0.1242E-02  0.1242E-02  0.1242E-02  0.1829E-02  0.1829E-02  0.6430E-03  0.1829E-02  0.6430E-03
      6.923  0.5186E-01  0.1524E-02  0.1524E-02  0.1524E-02  0.5094E-02  0.5094E-02  0.5187E-03  0.5094E-02  0.5187E-03
      7.343  0.8713E-01  0.2359E-02  0.2359E-02  0.2359E-02  0.3109E-01  0.3109E-01  0.2170E-01  0.3109E-01  0.2170E-01
      7.762  0.1261E+00  0.4210E-02  0.4210E-02  0.4210E-02  0.6367E-01  0.6367E-01  0.6388E-01  0.6367E-01  0.6388E-01
      8.182  0.1194E+00  0.5957E-02  0.5957E-02  0.5957E-02  0.1112E+00  0.1112E+00  0.1251E+00  0.1112E+00  0.1251E+00
      8.602  0.9142E-01  0.6277E-02  0.6277E-02  0.6277E-02  0.1562E+00  0.1562E+00  0.1224E+00  0.1562E+00  0.1224E+00
      9.022  0.4830E-01  0.5702E-02  0.5702E-02  0.5702E-02  0.1137E+00  0.1137E+00  0.8460E-01  0.1137E+00  0.8460E-01
      9.442  0.3583E-01  0.6617E-02  0.6617E-02  0.6617E-02  0.1432E+00  0.1432E+00  0.8380E-01  0.1432E+00  0.8380E-01
      9.862  0.1302E-01  0.7217E-02  0.7217E-02  0.7217E-02  0.1127E+00  0.1127E+00  0.9258E-01  0.1127E+00  0.9258E-01
     10.282  0.1185E-01  0.1012E-01  0.1012E-01  0.1012E-01  0.1318E+00  0.1318E+00  0.1309E+00  0.1318E+00  0.1309E+00
     10.701  0.1065E-01  0.6645E-02  0.6645E-02  0.6645E-02  0.1232E+00  0.1232E+00  0.9007E-01  0.1232E+00  0.9007E-01
     11.121  0.1528E-01  0.8290E-02  0.8290E-02  0.8290E-02  0.1481E+00  0.1481E+00  0.1360E+00  0.1481E+00  0.1360E+00
     11.541  0.2436E-01  0.1139E-01  0.1139E-01  0.1139E-01  0.1826E+00  0.1826E+00  0.1269E+00  0.1826E+00  0.1269E+00
     11.961  0.2660E-01  0.1376E-01  0.1376E-01  0.1376E-01  0.2045E+00  0.2045E+00  0.1445E+00  0.2045E+00  0.1445E+00
     12.381  0.2520E-01  0.1314E-01  0.1314E-01  0.1314E-01  0.2735E+00  0.2735E+00  0.1767E+00  0.2735E+00  0.1767E+00
     12.801  0.1484E-01  0.8155E-02  0.8155E-02  0.8155E-02  0.1304E+00  0.1304E+00  0.1282E+00  0.1304E+00  0.1282E+00
     13.221  0.1069E-01  0.8781E-02  0.8781E-02  0.8781E-02  0.9493E-01  0.9493E-01  0.1231E+00  0.9493E-01  0.1231E+00
     13.640  0.1267E-01  0.8843E-02  0.8843E-02  0.8843E-02  0.9562E-01  0.9562E-01  0.1408E+00  0.9562E-01  0.1408E+00
     14.060  0.6381E-02  0.8549E-02  0.8549E-02  0.8549E-02  0.8818E-01  0.8818E-01  0.2694E+00  0.8818E-01  0.2694E+00
     14.480  0.9673E-02  0.4016E-02  0.4016E-02  0.4016E-02  0.6865E-01  0.6865E-01  0.2621E+00  0.6865E-01  0.2621E+00
     14.900  0.1246E-01  0.6720E-02  0.6720E-02  0.6720E-02  0.9840E-01  0.9840E-01  0.2030E+00  0.9840E-01  0.2030E+00
     15.320  0.3925E-02  0.5020E-02  0.5020E-02  0.5020E-02  0.6344E-01  0.6344E-01  0.1636E+00  0.6344E-01  0.1636E+00
     15.740  0.3607E-02  0.3031E-02  0.3031E-02  0.3031E-02  0.1193E+00  0.1193E+00  0.1993E+00  0.1193E+00  0.1993E+00
     16.160  0.6661E-02  0.3109E-02  0.3109E-02  0.3109E-02  0.7442E-01  0.7442E-01  0.1163E+00  0.7442E-01  0.1163E+00
     16.579  0.3858E-02  0.2603E-02  0.2603E-02  0.2603E-02  0.1740E+00  0.1740E+00  0.1763E+00  0.1740E+00  0.1763E+00
     16.999  0.6422E-02  0.3022E-02  0.3022E-02  0.3022E-02  0.2027E+00  0.2027E+00  0.1616E+00  0.2027E+00  0.1616E+00
     17.419  0.1153E-01  0.3836E-02  0.3836E-02  0.3836E-02  0.2837E+00  0.2837E+00  0.1404E+00  0.2837E+00  0.1404E+00
     17.839  0.5249E-02  0.1724E-02  0.1724E-02  0.1724E-02  0.1162E+00  0.1162E+00  0.3216E-01  0.1162E+00  0.3216E-01
     18.259  0.4800E-02  0.2191E-02  0.2191E-02  0.2191E-02  0.1624E-01  0.1624E-01  0.1647E-01  0.1624E-01  0.1647E-01
     18.679  0.2604E-01  0.7941E-02  0.7941E-02  0.7941E-02  0.6360E-01  0.6360E-01  0.5445E-01  0.6360E-01  0.5445E-01
     19.099  0.7271E-02  0.3742E-02  0.3742E-02  0.3742E-02  0.1686E-01  0.1686E-01  0.1337E-01  0.1686E-01  0.1337E-01
     19.518  0.6109E-02  0.2773E-02  0.2773E-02  0.2773E-02  0.1191E-01  0.1191E-01  0.7980E-02  0.1191E-01  0.7980E-02
     19.938  0.3185E-01  0.1293E-01  0.1293E-01  0.1293E-01  0.5605E-01  0.5605E-01  0.4091E-01  0.5605E-01  0.4091E-01
     20.358  0.8853E-02  0.3242E-02  0.3242E-02  0.3242E-02  0.1274E-01  0.1274E-01  0.8434E-02  0.1274E-01  0.8434E-02
     20.778  0.2780E-01  0.6580E-02  0.6580E-02  0.6580E-02  0.2869E-01  0.2869E-01  0.1983E-01  0.2869E-01  0.1983E-01
     21.198  0.1363E-01  0.9032E-02  0.9032E-02  0.9032E-02  0.2260E-01  0.2260E-01  0.1149E-01  0.2260E-01  0.1149E-01
     21.618  0.3718E-01  0.1044E-01  0.1044E-01  0.1044E-01  0.3124E-01  0.3124E-01  0.1800E-01  0.3124E-01  0.1800E-01
     22.038  0.2627E-01  0.5965E-02  0.5965E-02  0.5965E-02  0.1790E-01  0.1790E-01  0.5752E-02  0.1790E-01  0.5752E-02
     22.457  0.3260E-01  0.7566E-02  0.7566E-02  0.7566E-02  0.1654E-01  0.1654E-01  0.1182E-01  0.1654E-01  0.1182E-01