    1    1  100    1
  0.1206789E+02  0.2574633E-09  0.2574633E-09  0.2574633E-09  0.5000000E-15
  1.000000000000000E-004
  CAR 
 Pt-fcc                                  
     16    110     24
 
  0.5000000E-01  0.5000000E-01  0.5000000E-01  0.2000000E-02
      1        -36.288184   1.000000
      2        -36.264428   1.000000
      3        -36.264428   1.000000
      4          4.184333   1.000000
      5         11.531888   1.000000
      6         11.657127   1.000000
      7         11.657127   1.000000
      8         14.668782   1.000000
      9         14.668782   1.000000
     10         30.939365   0.000000
     11         36.406279   0.000000
     12         37.204042   0.000000
     13         37.204042   0.000000
     14         43.985606   0.000000
     15         52.727009   0.000000
     16         53.493577   0.000000
     17         53.493577   0.000000
     18         56.788813   0.000000
     19         58.526494   0.000000
     20         58.526494   0.000000
     21         59.613831   0.000000
     22         64.418256   0.000000
     23         64.418256   0.000000
     24         70.879253   0.000000
 
  0.1500000E+00  0.5000000E-01  0.5000000E-01  0.6000000E-02
      1        -36.415063   1.000000
      2        -36.300940   1.000000
      3        -36.274055   1.000000
      4          4.841602   1.000000
      5         11.187918   1.000000
      6         11.905654   1.000000
      7         11.967254   1.000000
      8         14.310913   1.000000
      9         14.738185   1.000000
     10         32.043030   0.000000
     11         34.680104   0.000000
     12         37.662038   0.000000
     13         38.666576   0.000000
     14         46.286931   0.000000
     15         48.878400   0.000000
     16         50.202234   0.000000
     17         52.156670   0.000000
     18         56.142407   0.000000
     19         56.803992   0.000000
     20         59.953179   0.000000
     21         61.942659   0.000000
     22         63.353807   0.000000
     23         65.653548   0.000000
     24         71.888007   0.000000
 
  0.2500000E+00  0.5000000E-01  0.5000000E-01  0.6000000E-02
      1        -36.698271   1.000000
      2        -36.348377   1.000000
      3        -36.308873   1.000000
      4          6.166719   1.000000
      5         10.900176   1.000000
      6         12.165350   1.000000
      7         12.216051   1.000000
      8         14.256611   1.000000
      9         15.098897   1.000000
     10         31.907698   0.000000
     11         34.070803   0.000000
     12         39.680020   0.000000
     13         41.493493   0.000000
     14         42.625614   0.000000
     15         46.091926   0.000000
     16         47.125130   0.000000
     17         52.692996   0.000000
     18         56.241604   0.000000
     19         56.811626   0.000000
     20         60.326273   0.000000
     21         61.405620   0.000000
     22         65.521476   0.000000
     23         66.124540   0.000000
     24         72.263223   0.000000
 
  0.3500000E+00  0.5000000E-01  0.5000000E-01  0.6000000E-02
      1        -37.017616   1.000000
      2        -36.395305   1.000000
      3        -36.355789   1.000000
      4          7.090733   1.000000
      5         11.769248   1.000000
      6         11.969165   1.000000
      7         11.974062   1.000000
      8         15.216452   1.000000
      9         16.186886   1.000000
     10         29.327854   0.000000
     11         33.197338   0.000000
     12         39.881480   0.000000
     13         42.225693   0.000000
     14         42.515707   0.000000
     15         45.161238   0.000000
     16         45.228971   0.000000
     17         56.390582   0.000000
     18         56.800504   0.000000
     19         58.364809   0.000000
     20         60.466821   0.000000
     21         61.492663   0.000000
     22         65.056128   0.000000
     23         66.765325   0.000000
     24         71.314860   0.000000
 
  0.4500000E+00  0.5000000E-01  0.5000000E-01  0.6000000E-02
      1        -37.250250   1.000000
      2        -36.424065   1.000000
      3        -36.395423   1.000000
      4          7.159894   1.000000
      5         11.504873   1.000000
      6         11.648388   1.000000
      7         14.083005   1.000000
      8         16.495168   1.000000
      9         17.411642   0.000000
     10         26.279442   0.000000
     11         31.131855   0.000000
     12         37.624265   0.000000
     13         38.710528   0.000000
     14         46.632782   0.000000
     15         48.402646   0.000000
     16         48.612499   0.000000
     17         56.403873   0.000000
     18         56.800432   0.000000
     19         58.250968   0.000000
     20         58.973028   0.000000
     21         63.834736   0.000000
     22         66.232880   0.000000
     23         66.754315   0.000000
     24         68.419685   0.000000
 
 -0.4500000E+00  0.5000000E-01  0.5000000E-01  0.6000000E-02
      1        -37.314771   1.000000
      2        -36.423839   1.000000
      3        -36.413799   1.000000
      4          7.117005   1.000000
      5         11.373074   1.000000
      6         11.576251   1.000000
      7         14.978697   1.000000
      8         17.147825   0.009739
      9         17.796292   0.000000
     10         24.880707   0.000000
     11         30.629930   0.000000
     12         37.299484   0.000000
     13         37.333883   0.000000
     14         48.987978   0.000000
     15         49.340241   0.000000
     16         50.529960   0.000000
     17         55.695414   0.000000
     18         56.667415   0.000000
     19         56.811462   0.000000
     20         57.710768   0.000000
     21         64.809595   0.000000
     22         65.299333   0.000000
     23         68.532001   0.000000
     24         68.973289   0.000000
 
 -0.3500000E+00  0.5000000E-01  0.5000000E-01  0.6000000E-02
      1        -37.188985   1.000000
      2        -36.403671   1.000000
      3        -36.397133   1.000000
      4          7.175270   1.000000
      5         11.558614   1.000000
      6         11.791230   1.000000
      7         13.276162   1.000000
      8         16.507961   1.000000
      9         16.691037   1.000000
     10         27.301938   0.000000
     11         31.656902   0.000000
     12         38.442226   0.000000
     13         39.408709   0.000000
     14         46.098417   0.000000
     15         46.168732   0.000000
     16         47.833506   0.000000
     17         56.022899   0.000000
     18         56.804283   0.000000
     19         59.522830   0.000000
     20         59.844309   0.000000
     21         63.844715   0.000000
     22         64.027306   0.000000
     23         67.124692   0.000000
     24         69.385206   0.000000
 
 -0.2500000E+00  0.5000000E-01  0.5000000E-01  0.6000000E-02
      1        -36.915941   1.000000
      2        -36.369397   1.000000
      3        -36.351146   1.000000
      4          6.898481   1.000000
      5         11.301787   1.000000
      6         11.973590   1.000000
      7         12.135145   1.000000
      8         14.993494   1.000000
      9         15.620192   1.000000
     10         30.228919   0.000000
     11         33.919575   0.000000
     12         40.934915   0.000000
     13         41.362585   0.000000
     14         43.438993   0.000000
     15         44.006991   0.000000
     16         44.819929   0.000000
     17         55.876036   0.000000
     18         56.806910   0.000000
     19         57.118003   0.000000
     20         59.973520   0.000000
     21         62.788697   0.000000
     22         63.628823   0.000000
     23         67.588579   0.000000
     24         72.549422   0.000000
 
 -0.1500000E+00  0.5000000E-01  0.5000000E-01  0.6000000E-02
      1        -36.592279   1.000000
      2        -36.323149   1.000000
      3        -36.304713   1.000000
      4          5.699998   1.000000
      5         10.899169   1.000000
      6         12.156315   1.000000
      7         12.195206   1.000000
      8         14.180880   1.000000
      9         14.882442   1.000000
     10         32.671530   0.000000
     11         33.670459   0.000000
     12         39.142551   0.000000
     13         39.992323   0.000000
     14         44.557043   0.000000
     15         46.685723   0.000000
     16         49.055436   0.000000
     17         51.040640   0.000000
     18         56.063870   0.000000
     19         56.816673   0.000000
     20         60.120933   0.000000
     21         62.848787   0.000000
     22         62.960947   0.000000
     23         66.936797   0.000000
     24         72.105776   0.000000
 
 -0.5000000E-01  0.5000000E-01  0.5000000E-01  0.6000000E-02
      1        -36.345800   1.000000
      2        -36.283463   1.000000
      3        -36.276958   1.000000
      4          4.521410   1.000000
      5         11.296860   1.000000
      6         11.829600   1.000000
      7         11.841051   1.000000
      8         14.374749   1.000000
      9         14.778969   1.000000
     10         31.522858   0.000000
     11         35.635231   0.000000
     12         37.403179   0.000000
     13         37.663089   0.000000
     14         45.595834   0.000000
     15         50.532476   0.000000
     16         50.965591   0.000000
     17         53.591919   0.000000
     18         55.923842   0.000000
     19         56.797514   0.000000
     20         60.572756   0.000000
     21         61.305842   0.000000
     22         62.390435   0.000000
     23         65.898092   0.000000
     24         71.632045   0.000000
 
  0.1500000E+00  0.1500000E+00  0.5000000E-01  0.6000000E-02
      1        -36.443471   1.000000
      2        -36.319050   1.000000
      3        -36.311790   1.000000
      4          5.165445   1.000000
      5         10.845763   1.000000
      6         12.194605   1.000000
      7         12.206009   1.000000
      8         13.865706   1.000000
      9         14.992764   1.000000
     10         32.624567   0.000000
     11         35.008438   0.000000
     12         37.693488   0.000000
     13         38.049143   0.000000
     14         47.359445   0.000000
     15         48.301720   0.000000
     16         48.928937   0.000000
     17         52.242039   0.000000
     18         54.089611   0.000000
     19         56.807122   0.000000
     20         59.324896   0.000000
     21         62.875037   0.000000
     22         62.938180   0.000000
     23         67.203089   0.000000
     24         73.509576   0.000000
 
  0.2500000E+00  0.1500000E+00  0.5000000E-01  0.1200000E-01
      1        -36.641236   1.000000
      2        -36.388270   1.000000
      3        -36.337971   1.000000
      4          6.290696   1.000000
      5         10.343830   1.000000
      6         12.323427   1.000000
      7         12.713593   1.000000
      8         13.704070   1.000000
      9         15.395201   1.000000
     10         33.480632   0.000000
     11         34.421700   0.000000
     12         37.927511   0.000000
     13         39.496957   0.000000
     14         43.762884   0.000000
     15         46.412833   0.000000
     16         49.612078   0.000000
     17         52.789381   0.000000
     18         52.948131   0.000000
     19         56.813682   0.000000
     20         57.800160   0.000000
     21         61.612801   0.000000
     22         66.075529   0.000000
     23         68.894621   0.000000
     24         73.734453   0.000000
 
  0.3500000E+00  0.1500000E+00  0.5000000E-01  0.1200000E-01
      1        -36.920923   1.000000
      2        -36.450349   1.000000
      3        -36.383116   1.000000
      4          7.490298   1.000000
      5         10.493427   1.000000
      6         11.683681   1.000000
      7         12.714885   1.000000
      8         14.927445   1.000000
      9         16.454824   1.000000
     10         30.905770   0.000000
     11         34.543484   0.000000
     12         38.081492   0.000000
     13         39.349057   0.000000
     14         43.992515   0.000000
     15         45.667631   0.000000
     16         47.455813   0.000000
     17         52.146814   0.000000
     18         56.810561   0.000000
     19         57.195140   0.000000
     20         59.119199   0.000000
     21         61.151343   0.000000
     22         65.593561   0.000000
     23         70.071537   0.000000
     24         71.451368   0.000000
 
  0.4500000E+00  0.1500000E+00  0.5000000E-01  0.1200000E-01
      1        -37.159018   1.000000
      2        -36.497097   1.000000
      3        -36.429033   1.000000
      4          7.750261   1.000000
      5         11.074558   1.000000
      6         12.014993   1.000000
      7         12.408877   1.000000
      8         16.535139   1.000000
      9         18.065345   0.000000
     10         27.371401   0.000000
     11         32.572606   0.000000
     12         36.665740   0.000000
     13         39.164849   0.000000
     14         44.898729   0.000000
     15         48.112196   0.000000
     16         49.223400   0.000000
     17         52.544881   0.000000
     18         56.802173   0.000000
     19         58.713668   0.000000
     20         59.590852   0.000000
     21         62.719853   0.000000
     22         65.175790   0.000000
     23         67.079258   0.000000
     24         69.536758   0.000000
 
 -0.4500000E+00  0.1500000E+00  0.5000000E-01  0.1200000E-01
      1        -37.267414   1.000000
      2        -36.527565   1.000000
      3        -36.443639   1.000000
      4          7.704055   1.000000
      5         10.838821   1.000000
      6         12.119802   1.000000
      7         13.412906   1.000000
      8         17.023034   0.883636
      9         19.851715   0.000000
     10         24.549685   0.000000
     11         31.828385   0.000000
     12         36.286345   0.000000
     13         37.203200   0.000000
     14         47.636127   0.000000
     15         48.506855   0.000000
     16         51.718845   0.000000
     17         54.713119   0.000000
     18         56.778443   0.000000
     19         56.856650   0.000000
     20         59.397913   0.000000
     21         61.497738   0.000000
     22         63.014818   0.000000
     23         68.167433   0.000000
     24         70.520480   0.000000
 
 -0.3500000E+00  0.1500000E+00  0.5000000E-01  0.1200000E-01
      1        -37.208461   1.000000
      2        -36.531778   1.000000
      3        -36.418606   1.000000
      4          7.776851   1.000000
      5         11.003373   1.000000
      6         12.160934   1.000000
      7         12.823120   1.000000
      8         16.269949   1.000000
      9         19.049364   0.000000
     10         26.290362   0.000000
     11         32.211069   0.000000
     12         35.962622   0.000000
     13         38.972893   0.000000
     14         44.957234   0.000000
     15         48.786423   0.000000
     16         50.339219   0.000000
     17         54.571668   0.000000
     18         56.796426   0.000000
     19         58.577657   0.000000
     20         59.762656   0.000000
     21         60.309941   0.000000
     22         64.925059   0.000000
     23         67.583442   0.000000
     24         68.994952   0.000000
 
 -0.2500000E+00  0.1500000E+00  0.5000000E-01  0.1200000E-01
      1        -37.006028   1.000000
      2        -36.498538   1.000000
      3        -36.370489   1.000000
      4          7.741854   1.000000
      5         11.014431   1.000000
      6         11.529933   1.000000
      7         12.528015   1.000000
      8         14.809083   1.000000
      9         17.385625   0.000000
     10         29.831978   0.000000
     11         33.819871   0.000000
     12         37.121307   0.000000
     13         40.277230   0.000000
     14         43.167669   0.000000
     15         47.131382   0.000000
     16         48.053801   0.000000
     17         52.398723   0.000000
     18         56.800761   0.000000
     19         57.634841   0.000000
     20         59.558153   0.000000
     21         61.837388   0.000000
     22         65.611472   0.000000
     23         68.863413   0.000000
     24         69.716044   0.000000
 
 -0.1500000E+00  0.1500000E+00  0.5000000E-01  0.1200000E-01
      1        -36.737733   1.000000
      2        -36.429543   1.000000
      3        -36.322956   1.000000
      4          6.761442   1.000000
      5         10.422092   1.000000
      6         12.097634   1.000000
      7         12.747962   1.000000
      8         13.700396   1.000000
      9         15.858773   1.000000
     10         32.437895   0.000000
     11         34.812691   0.000000
     12         38.026553   0.000000
     13         39.680407   0.000000
     14         43.007005   0.000000
     15         47.084846   0.000000
     16         49.227492   0.000000
     17         51.760019   0.000000
     18         53.995811   0.000000
     19         56.804700   0.000000
     20         58.751594   0.000000
     21         60.396363   0.000000
     22         67.788497   0.000000
     23         69.167919   0.000000
     24         72.345876   0.000000
 
 -0.5000000E-01  0.1500000E+00  0.5000000E-01  0.1200000E-01
      1        -36.517846   1.000000
      2        -36.337402   1.000000
      3        -36.294859   1.000000
      4          5.453945   1.000000
      5         10.842154   1.000000
      6         12.189074   1.000000
      7         12.217053   1.000000
      8         13.947181   1.000000
      9         14.979179   1.000000
     10         33.005226   0.000000
     11         33.959862   0.000000
     12         37.923375   0.000000
     13         39.546741   0.000000
     14         45.153967   0.000000
     15         48.137423   0.000000
     16         49.815946   0.000000
     17         51.641303   0.000000
     18         53.957148   0.000000
     19         56.807915   0.000000
     20         60.142061   0.000000
     21         60.919364   0.000000
     22         64.865021   0.000000
     23         67.247653   0.000000
     24         73.067040   0.000000
 
  0.2500000E+00  0.2500000E+00  0.5000000E-01  0.6000000E-02
      1        -36.719734   1.000000
      2        -36.425690   1.000000
      3        -36.424713   1.000000
      4          6.982687   1.000000
      5          9.663522   1.000000
      6         12.527908   1.000000
      7         13.431880   1.000000
      8         13.759936   1.000000
      9         15.669528   1.000000
     10         34.644698   0.000000
     11         35.918525   0.000000
     12         37.072494   0.000000
     13         37.401140   0.000000
     14         44.211997   0.000000
     15         45.412022   0.000000
     16         46.190748   0.000000
     17         54.215853   0.000000
     18         54.770986   0.000000
     19         55.647942   0.000000
     20         56.813583   0.000000
     21         64.170718   0.000000
     22         65.423626   0.000000
     23         67.021580   0.000000
     24         77.191392   0.000000
 
  0.3500000E+00  0.2500000E+00  0.5000000E-01  0.1200000E-01
      1        -36.905953   1.000000
      2        -36.513007   1.000000
      3        -36.464898   1.000000
      4          7.895557   1.000000
      5          9.257519   1.000000
      6         12.015438   1.000000
      7         14.083167   1.000000
      8         14.958470   1.000000
      9         16.530715   1.000000
     10         32.876885   0.000000
     11         35.330960   0.000000
     12         35.964871   0.000000
     13         38.232221   0.000000
     14         43.202928   0.000000
     15         45.443605   0.000000
     16         46.987767   0.000000
     17         53.209837   0.000000
     18         53.977270   0.000000
     19         56.810489   0.000000
     20         59.227099   0.000000
     21         63.072061   0.000000
     22         65.792957   0.000000
     23         68.132094   0.000000
     24         74.317649   0.000000
 
  0.4500000E+00  0.2500000E+00  0.5000000E-01  0.1200000E-01
      1        -37.081759   1.000000
      2        -36.600946   1.000000
      3        -36.506121   1.000000
      4          8.298235   1.000000
      5          9.703125   1.000000
      6         11.580064   1.000000
      7         13.806549   1.000000
      8         16.751441   1.000000
      9         18.476593   0.000000
     10         28.670087   0.000000
     11         34.068335   0.000000
     12         34.491274   0.000000
     13         38.962319   0.000000
     14         44.317315   0.000000
     15         46.861940   0.000000
     16         49.344978   0.000000
     17         52.510826   0.000000
     18         54.762201   0.000000
     19         56.802650   0.000000
     20         58.723388   0.000000
     21         63.811876   0.000000
     22         67.013759   0.000000
     23         67.878594   0.000000
     24         71.446509   0.000000
 
 -0.4500000E+00  0.2500000E+00  0.5000000E-01  0.1200000E-01
      1        -37.168212   1.000000
      2        -36.690589   1.000000
      3        -36.511221   1.000000
      4          8.446276   1.000000
      5         10.105012   1.000000
      6         11.903644   1.000000
      7         13.402752   1.000000
      8         17.085141   0.286625
      9         21.604281   0.000000
     10         24.696949   0.000000
     11         32.944013   0.000000
     12         34.732611   0.000000
     13         37.330950   0.000000
     14         45.979451   0.000000
     15         48.455732   0.000000
     16         50.447639   0.000000
     17         53.252143   0.000000
     18         56.798845   0.000000
     19         57.372709   0.000000
     20         57.927058   0.000000
     21         62.823206   0.000000
     22         64.556813   0.000000
     23         68.330722   0.000000
     24         70.576856   0.000000
 
 -0.3500000E+00  0.2500000E+00  0.5000000E-01  0.1200000E-01
      1        -37.142520   1.000000
      2        -36.741466   1.000000
      3        -36.476449   1.000000
      4          8.794307   1.000000
      5         10.226848   1.000000
      6         11.887219   1.000000
      7         13.193588   1.000000
      8         16.184716   1.000000
      9         21.377562   0.000000
     10         25.808442   0.000000
     11         32.204069   0.000000
     12         34.993424   0.000000
     13         37.969643   0.000000
     14         44.487624   0.000000
     15         47.314665   0.000000
     16         51.967232   0.000000
     17         56.766454   0.000000
     18         56.845335   0.000000
     19         57.318136   0.000000
     20         59.681110   0.000000
     21         60.544497   0.000000
     22         61.882219   0.000000
     23         67.306165   0.000000
     24         70.007959   0.000000
 
 -0.2500000E+00  0.2500000E+00  0.5000000E-01  0.1200000E-01
      1        -37.044791   1.000000
      2        -36.698926   1.000000
      3        -36.419125   1.000000
      4          9.092766   1.000000
      5         10.502501   1.000000
      6         10.808978   1.000000
      7         13.334621   1.000000
      8         14.747761   1.000000
      9         19.578567   0.000000
     10         29.092756   0.000000
     11         32.845631   0.000000
     12         34.976984   0.000000
     13         40.509233   0.000000
     14         41.622027   0.000000
     15         47.647948   0.000000
     16         52.656595   0.000000
     17         52.995659   0.000000
     18         54.704747   0.000000
     19         56.802069   0.000000
     20         59.970437   0.000000
     21         62.895886   0.000000
     22         66.201272   0.000000
     23         66.747304   0.000000
     24         68.492331   0.000000
 
 -0.1500000E+00  0.2500000E+00  0.5000000E-01  0.1200000E-01
      1        -36.931973   1.000000
      2        -36.553123   1.000000
      3        -36.363894   1.000000
      4          8.113060   1.000000
      5         10.282881   1.000000
      6         11.481580   1.000000
      7         13.140658   1.000000
      8         13.952170   1.000000
      9         17.580018   0.000000
     10         31.012473   0.000000
     11         34.830698   0.000000
     12         36.206586   0.000000
     13         38.613294   0.000000
     14         44.022532   0.000000
     15         47.914433   0.000000
     16         49.364462   0.000000
     17         50.416001   0.000000
     18         55.465841   0.000000
     19         56.808785   0.000000
     20         59.207647   0.000000
     21         61.755019   0.000000
     22         67.201651   0.000000
     23         69.670693   0.000000
     24         70.194689   0.000000
 
 -0.5000000E-01  0.2500000E+00  0.5000000E-01  0.1200000E-01
      1        -36.812489   1.000000
      2        -36.393489   1.000000
      3        -36.333928   1.000000
      4          6.797955   1.000000
      5         10.749061   1.000000
      6         12.057585   1.000000
      7         12.389600   1.000000
      8         14.333871   1.000000
      9         15.712784   1.000000
     10         31.360494   0.000000
     11         34.503467   0.000000
     12         39.585815   0.000000
     13         40.285696   0.000000
     14         43.297788   0.000000
     15         45.127873   0.000000
     16         46.975924   0.000000
     17         54.080329   0.000000
     18         55.294923   0.000000
     19         56.811324   0.000000
     20         59.913122   0.000000
     21         60.888825   0.000000
     22         65.641206   0.000000
     23         68.685584   0.000000
     24         72.538675   0.000000
 
  0.3500000E+00  0.3500000E+00  0.5000000E-01  0.6000000E-02
      1        -37.010515   1.000000
      2        -36.551067   1.000000
      3        -36.544518   1.000000
      4          7.800297   1.000000
      5          8.566067   1.000000
      6         13.419454   1.000000
      7         15.140089   1.000000
      8         15.734641   1.000000
      9         16.513517   1.000000
     10         32.899223   0.000000
     11         33.594710   0.000000
     12         34.977344   0.000000
     13         39.484057   0.000000
     14         40.135004   0.000000
     15         47.327691   0.000000
     16         47.931817   0.000000
     17         50.430176   0.000000
     18         56.039078   0.000000
     19         56.803792   0.000000
     20         59.181394   0.000000
     21         65.448197   0.000000
     22         66.966443   0.000000
     23         67.161247   0.000000
     24         71.391796   0.000000
 
  0.4500000E+00  0.3500000E+00  0.5000000E-01  0.1200000E-01
      1        -37.120923   1.000000
      2        -36.631869   1.000000
      3        -36.584287   1.000000
      4          7.834354   1.000000
      5          8.391490   1.000000
      6         13.580246   1.000000
      7         15.712887   1.000000
      8         16.779036   1.000000
      9         18.381935   0.000000
     10         29.794256   0.000000
     11         31.791763   0.000000
     12         33.385369   0.000000
     13         40.152092   0.000000
     14         41.986237   0.000000
     15         47.131178   0.000000
     16         50.426966   0.000000
     17         51.840183   0.000000
     18         56.109779   0.000000
     19         56.802386   0.000000
     20         57.128772   0.000000
     21         64.638171   0.000000
     22         66.483179   0.000000
     23         68.613727   0.000000
     24         68.952403   0.000000
 
 -0.4500000E+00  0.3500000E+00  0.5000000E-01  0.1200000E-01
      1        -37.142329   1.000000
      2        -36.762848   1.000000
      3        -36.587639   1.000000
      4          8.047739   1.000000
      5          8.949078   1.000000
      6         12.987042   1.000000
      7         15.098786   1.000000
      8         17.295976   0.000000
      9         21.972785   0.000000
     10         25.746468   0.000000
     11         31.353664   0.000000
     12         32.482039   0.000000
     13         39.821033   0.000000
     14         44.993683   0.000000
     15         46.595780   0.000000
     16         50.229026   0.000000
     17         54.639409   0.000000
     18         56.649487   0.000000
     19         56.804970   0.000000
     20         57.364372   0.000000
     21         62.611767   0.000000
     22         65.160422   0.000000
     23         67.113980   0.000000
     24         68.945589   0.000000
 
 -0.3500000E+00  0.3500000E+00  0.5000000E-01  0.1200000E-01
      1        -37.046139   1.000000
      2        -36.918758   1.000000
      3        -36.548003   1.000000
      4          8.563372   1.000000
      5          9.847366   1.000000
      6         12.044114   1.000000
      7         14.415627   1.000000
      8         16.556553   1.000000
      9         22.875438   0.000000
     10         26.160675   0.000000
     11         29.518590   0.000000
     12         34.517295   0.000000
     13         38.593573   0.000000
     14         45.141838   0.000000
     15         47.202957   0.000000
     16         48.968538   0.000000
     17         56.794379   0.000000
     18         56.833318   0.000000
     19         58.049014   0.000000
     20         60.245039   0.000000
     21         61.361497   0.000000
     22         64.105957   0.000000
     23         65.879773   0.000000
     24         67.982168   0.000000
 
 -0.2500000E+00  0.3500000E+00  0.5000000E-01  0.1200000E-01
      1        -37.055851   1.000000
      2        -36.848247   1.000000
      3        -36.483238   1.000000
      4          9.199088   1.000000
      5         10.321042   1.000000
      6         11.147294   1.000000
      7         13.705335   1.000000