PROCAR lm decomposed
# of k-points:  110         # of bands:   24         # of ions:    1

 k-point     1 :    0.05000000 0.05000000 0.05000000     weight = 0.00200000

band     1 # energy  -36.28818368 # occ.  2.00000000
 
ion      s     py     pz     px    dxy    dyz    dz2    dxz  x2-y2    tot
    1  0.000  0.333  0.333  0.333  0.000  0.000  0.000  0.000  0.000  1.000
 
band     2 # energy  -36.26442761 # occ.  2.00000000
 
ion      s     py     pz     px    dxy    dyz    dz2    dxz  x2-y2    tot
    1  0.000  0.076  0.378  0.547  0.000  0.000  0.000  0.000  0.000  1.000
 
band     3 # energy  -36.26442761 # occ.  2.00000000
 
ion      s     py     pz     px    dxy    dyz    dz2    dxz  x2-y2    tot
    1  0.000  0.591  0.289  0.120  0.000  0.000  0.000  0.000  0.000  1.000
 
band     4 # energy    4.18433293 # occ.  2.00000000
 
ion      s     py     pz     px    dxy    dyz    dz2    dxz  x2-y2    tot
    1  0.502  0.001  0.001  0.001  0.000  0.000  0.000  0.000  0.000  0.504
 
band     5 # energy   11.53188808 # occ.  2.00000000
 
ion      s     py     pz     px    dxy    dyz    dz2    dxz  x2-y2    tot
    1  0.000  0.000  0.000  0.000  0.291  0.291  0.000  0.291  0.000  0.874
 
band     6 # energy   11.65712684 # occ.  2.00000000
 
ion      s     py     pz     px    dxy    dyz    dz2    dxz  x2-y2    tot
    1  0.000  0.000  0.000  0.000  0.586  0.146  0.000  0.147  0.000  0.880
 
band     7 # energy   11.65712684 # occ.  2.00000000
 
ion      s     py     pz     px    dxy    dyz    dz2    dxz  x2-y2    tot
    1  0.000  0.000  0.000  0.000  0.000  0.440  0.000  0.439  0.000  0.880
 
band     8 # energy   14.66878159 # occ.  2.00000000
 
ion      s     py     pz     px    dxy    dyz    dz2    dxz  x2-y2    tot
    1  0.000  0.000  0.000  0.000  0.000  0.000  0.934  0.000  0.000  0.934
 
band     9 # energy   14.66878159 # occ.  2.00000000
 
ion      s     py     pz     px    dxy    dyz    dz2    dxz  x2-y2    tot
    1  0.000  0.000  0.000  0.000  0.000  0.000  0.000  0.000  0.934  0.934
 
band    10 # energy   30.93936543 # occ.  0.00000000
 
ion      s     py     pz     px    dxy    dyz    dz2    dxz  x2-y2    tot
    1  0.000  0.000  0.000  0.000  0.002  0.002  0.000  0.002  0.000  0.007
 
band    11 # energy   36.40627918 # occ.  0.00000000
 
ion      s     py     pz     px    dxy    dyz    dz2    dxz  x2-y2    tot
    1  0.007  0.017  0.017  0.017  0.001  0.001  0.000  0.001  0.000  0.062
 
band    12 # energy   37.20404225 # occ.  0.00000000
 
ion      s     py     pz     px    dxy    dyz    dz2    dxz  x2-y2    tot
    1  0.000  0.007  0.037  0.012  0.001  0.000  0.004  0.000  0.000  0.062
 
band    13 # energy   37.20404225 # occ.  0.00000000
 
ion      s     py     pz     px    dxy    dyz    dz2    dxz  x2-y2    tot
    1  0.000  0.030  0.000  0.026  0.000  0.000  0.000  0.001  0.004  0.062
 
band    14 # energy   43.98560624 # occ.  0.00000000
 
ion      s     py     pz     px    dxy    dyz    dz2    dxz  x2-y2    tot
    1  0.041  0.004  0.004  0.004  0.000  0.000  0.000  0.000  0.000  0.053
 
band    15 # energy   52.72700926 # occ.  0.00000000
 
ion      s     py     pz     px    dxy    dyz    dz2    dxz  x2-y2    tot
    1  0.005  0.058  0.058  0.058  0.162  0.162  0.000  0.162  0.000  0.665
 
band    16 # energy   53.49357667 # occ.  0.00000000
 
ion      s     py     pz     px    dxy    dyz    dz2    dxz  x2-y2    tot
    1  0.000  0.012  0.049  0.013  0.388  0.099  0.002  0.096  0.000  0.660
 
band    17 # energy   53.49357667 # occ.  0.00000000
 
ion      s     py     pz     px    dxy    dyz    dz2    dxz  x2-y2    tot
    1  0.000  0.037  0.000  0.037  0.001  0.290  0.000  0.293  0.002  0.660
 
band    18 # energy   56.78881341 # occ.  0.00000000
 
ion      s     py     pz     px    dxy    dyz    dz2    dxz  x2-y2    tot
    1  6.286  0.000  0.000  0.000  0.000  0.000  0.000  0.000  0.000  6.286
 
band    19 # energy   58.52649390 # occ.  0.00000000
 
ion      s     py     pz     px    dxy    dyz    dz2    dxz  x2-y2    tot
    1  0.000  0.098  0.493  0.155  0.052  0.016  0.036  0.010  0.000  0.861
 
band    20 # energy   58.52649390 # occ.  0.00000000
 
ion      s     py     pz     px    dxy    dyz    dz2    dxz  x2-y2    tot
    1  0.000  0.399  0.004  0.342  0.000  0.036  0.000  0.042  0.036  0.861
 
band    21 # energy   59.61383052 # occ.  0.00000000
 
ion      s     py     pz     px    dxy    dyz    dz2    dxz  x2-y2    tot
    1  0.024  0.215  0.215  0.215  0.066  0.066  0.000  0.066  0.000  0.867
 
band    22 # energy   64.41825629 # occ.  0.00000000
 
ion      s     py     pz     px    dxy    dyz    dz2    dxz  x2-y2    tot
    1  0.000  0.008  0.037  0.011  0.000  0.000  0.541  0.000  0.002  0.599
 
band    23 # energy   64.41825629 # occ.  0.00000000
 
ion      s     py     pz     px    dxy    dyz    dz2    dxz  x2-y2    tot
    1  0.000  0.029  0.000  0.026  0.000  0.000  0.002  0.000  0.541  0.599
 
band    24 # energy   70.87925343 # occ.  0.00000000
 
ion      s     py     pz     px    dxy    dyz    dz2    dxz  x2-y2    tot
    1  0.000  0.000  0.000  0.000  0.000  0.000  0.000  0.000  0.000  0.000
 

 k-point     2 :    0.15000000 0.05000000 0.05000000     weight = 0.00600000

band     1 # energy  -36.41506290 # occ.  2.00000000
 
ion      s     py     pz     px    dxy    dyz    dz2    dxz  x2-y2    tot
    1  0.000  0.455  0.455  0.085  0.000  0.000  0.000  0.000  0.000  0.996
 
band     2 # energy  -36.30094034 # occ.  2.00000000
 
ion      s     py     pz     px    dxy    dyz    dz2    dxz  x2-y2    tot
    1  0.000  0.043  0.043  0.914  0.000  0.000  0.000  0.000  0.000  1.000
 
band     3 # energy  -36.27405474 # occ.  2.00000000
 
ion      s     py     pz     px    dxy    dyz    dz2    dxz  x2-y2    tot
    1  0.000  0.500  0.500  0.000  0.000  0.000  0.000  0.000  0.000  1.000
 
band     4 # energy    4.84160182 # occ.  2.00000000
 
ion      s     py     pz     px    dxy    dyz    dz2    dxz  x2-y2    tot
    1  0.483  0.006  0.006  0.001  0.000  0.003  0.000  0.000  0.000  0.500
 
band     5 # energy   11.18791834 # occ.  2.00000000
 
ion      s     py     pz     px    dxy    dyz    dz2    dxz  x2-y2    tot
    1  0.000  0.000  0.000  0.003  0.408  0.029  0.000  0.408  0.000  0.850
 
band     6 # energy   11.90565371 # occ.  2.00000000
 
ion      s     py     pz     px    dxy    dyz    dz2    dxz  x2-y2    tot
    1  0.000  0.000  0.000  0.000  0.438  0.000  0.004  0.438  0.001  0.881
 
band     7 # energy   11.96725401 # occ.  2.00000000
 
ion      s     py     pz     px    dxy    dyz    dz2    dxz  x2-y2    tot
    1  0.000  0.001  0.001  0.000  0.015  0.816  0.006  0.015  0.019  0.875
 
band     8 # energy   14.31091323 # occ.  2.00000000
 
ion      s     py     pz     px    dxy    dyz    dz2    dxz  x2-y2    tot
    1  0.000  0.000  0.000  0.000  0.002  0.000  0.684  0.002  0.228  0.917
 
band     9 # energy   14.73818511 # occ.  2.00000000
 
ion      s     py     pz     px    dxy    dyz    dz2    dxz  x2-y2    tot
    1  0.000  0.000  0.000  0.000  0.001  0.025  0.226  0.001  0.677  0.929
 
band    10 # energy   32.04302982 # occ.  0.00000000
 
ion      s     py     pz     px    dxy    dyz    dz2    dxz  x2-y2    tot
    1  0.000  0.000  0.000  0.000  0.019  0.002  0.000  0.019  0.000  0.040
 
band    11 # energy   34.68010365 # occ.  0.00000000
 
ion      s     py     pz     px    dxy    dyz    dz2    dxz  x2-y2    tot
    1  0.027  0.018  0.018  0.005  0.003  0.013  0.002  0.003  0.006  0.095
 
band    12 # energy   37.66203801 # occ.  0.00000000
 
ion      s     py     pz     px    dxy    dyz    dz2    dxz  x2-y2    tot
    1  0.000  0.002  0.002  0.068  0.009  0.001  0.002  0.009  0.005  0.098
 
band    13 # energy   38.66657601 # occ.  0.00000000
 
ion      s     py     pz     px    dxy    dyz    dz2    dxz  x2-y2    tot
    1  0.000  0.026  0.026  0.000  0.000  0.000  0.028  0.000  0.009  0.090
 
band    14 # energy   46.28693132 # occ.  0.00000000
 
ion      s     py     pz     px    dxy    dyz    dz2    dxz  x2-y2    tot
    1  0.003  0.069  0.069  0.009  0.005  0.067  0.000  0.005  0.000  0.226
 
band    15 # energy   48.87839990 # occ.  0.00000000
 
ion      s     py     pz     px    dxy    dyz    dz2    dxz  x2-y2    tot
    1  0.055  0.065  0.065  0.000  0.001  0.184  0.003  0.001  0.009  0.382
 
band    16 # energy   50.20223367 # occ.  0.00000000
 
ion      s     py     pz     px    dxy    dyz    dz2    dxz  x2-y2    tot
    1  0.003  0.000  0.000  0.236  0.156  0.014  0.001  0.156  0.002  0.569
 
band    17 # energy   52.15666993 # occ.  0.00000000
 
ion      s     py     pz     px    dxy    dyz    dz2    dxz  x2-y2    tot
    1  0.000  0.056  0.056  0.000  0.225  0.000  0.012  0.225  0.004  0.579
 
band    18 # energy   56.14240742 # occ.  0.00000000
 
ion      s     py     pz     px    dxy    dyz    dz2    dxz  x2-y2    tot
    1  0.000  0.271  0.271  0.000  0.063  0.000  0.083  0.063  0.028  0.778
 
band    19 # energy   56.80399230 # occ.  0.00000000
 
ion      s     py     pz     px    dxy    dyz    dz2    dxz  x2-y2    tot
    1  6.294  0.000  0.000  0.000  0.000  0.000  0.000  0.000  0.000  6.295
 
band    20 # energy   59.95317909 # occ.  0.00000000
 
ion      s     py     pz     px    dxy    dyz    dz2    dxz  x2-y2    tot
    1  0.067  0.163  0.163  0.044  0.000  0.314  0.014  0.000  0.043  0.808
 
band    21 # energy   61.94265908 # occ.  0.00000000
 
ion      s     py     pz     px    dxy    dyz    dz2    dxz  x2-y2    tot
    1  0.031  0.028  0.028  0.057  0.056  0.002  0.067  0.056  0.200  0.524
 
band    22 # energy   63.35380674 # occ.  0.00000000
 
ion      s     py     pz     px    dxy    dyz    dz2    dxz  x2-y2    tot
    1  0.007  0.000  0.000  0.488  0.119  0.021  0.015  0.119  0.046  0.817
 
band    23 # energy   65.65354761 # occ.  0.00000000
 
ion      s     py     pz     px    dxy    dyz    dz2    dxz  x2-y2    tot
    1  0.000  0.102  0.102  0.000  0.002  0.000  0.240  0.002  0.080  0.527
 
band    24 # energy   71.88800721 # occ.  0.00000000
 
ion      s     py     pz     px    dxy    dyz    dz2    dxz  x2-y2    tot
    1  0.000  0.001  0.001  0.000  0.017  0.000  0.047  0.017  0.016  0.098
 

 k-point     3 :    0.25000000 0.05000000 0.05000000     weight = 0.00600000

band     1 # energy  -36.69827097 # occ.  2.00000000
 
ion      s     py     pz     px    dxy    dyz    dz2    dxz  x2-y2    tot
    1  0.001  0.390  0.390  0.209  0.000  0.000  0.000  0.000  0.000  0.989
 
band     2 # energy  -36.34837677 # occ.  2.00000000
 
ion      s     py     pz     px    dxy    dyz    dz2    dxz  x2-y2    tot
    1  0.000  0.106  0.106  0.787  0.000  0.000  0.000  0.000  0.000  0.999
 
band     3 # energy  -36.30887260 # occ.  2.00000000
 
ion      s     py     pz     px    dxy    dyz    dz2    dxz  x2-y2    tot
    1  0.000  0.500  0.500  0.000  0.000  0.000  0.000  0.000  0.000  1.000
 
band     4 # energy    6.16671865 # occ.  2.00000000
 
ion      s     py     pz     px    dxy    dyz    dz2    dxz  x2-y2    tot
    1  0.419  0.012  0.012  0.003  0.018  0.031  0.000  0.018  0.001  0.516
 
band     5 # energy   10.90017625 # occ.  2.00000000
 
ion      s     py     pz     px    dxy    dyz    dz2    dxz  x2-y2    tot
    1  0.017  0.006  0.006  0.011  0.340  0.059  0.000  0.340  0.000  0.780
 
band     6 # energy   12.16535030 # occ.  2.00000000
 
ion      s     py     pz     px    dxy    dyz    dz2    dxz  x2-y2    tot
    1  0.001  0.002  0.002  0.000  0.035  0.585  0.051  0.035  0.153  0.866
 
band     7 # energy   12.21605062 # occ.  2.00000000
 
ion      s     py     pz     px    dxy    dyz    dz2    dxz  x2-y2    tot
    1  0.000  0.000  0.000  0.000  0.356  0.000  0.124  0.356  0.041  0.879
 
band     8 # energy   14.25661131 # occ.  2.00000000
 
ion      s     py     pz     px    dxy    dyz    dz2    dxz  x2-y2    tot
    1  0.000  0.000  0.000  0.000  0.086  0.000  0.548  0.086  0.183  0.902
 
band     9 # energy   15.09889697 # occ.  2.00000000
 
ion      s     py     pz     px    dxy    dyz    dz2    dxz  x2-y2    tot
    1  0.003  0.001  0.001  0.000  0.011  0.185  0.176  0.011  0.529  0.919
 
band    10 # energy   31.90769757 # occ.  0.00000000
 
ion      s     py     pz     px    dxy    dyz    dz2    dxz  x2-y2    tot
    1  0.051  0.013  0.013  0.010  0.004  0.018  0.002  0.004  0.005  0.120
 
band    11 # energy   34.07080331 # occ.  0.00000000
 
ion      s     py     pz     px    dxy    dyz    dz2    dxz  x2-y2    tot
    1  0.017  0.009  0.009  0.012  0.068  0.038  0.000  0.068  0.000  0.221
 
band    12 # energy   39.68002020 # occ.  0.00000000
 
ion      s     py     pz     px    dxy    dyz    dz2    dxz  x2-y2    tot
    1  0.000  0.003  0.003  0.102  0.018  0.010  0.010  0.018  0.031  0.195
 
band    13 # energy   41.49349265 # occ.  0.00000000
 
ion      s     py     pz     px    dxy    dyz    dz2    dxz  x2-y2    tot
    1  0.000  0.021  0.021  0.000  0.003  0.000  0.076  0.003  0.025  0.149
 
band    14 # energy   42.62561408 # occ.  0.00000000
 
ion      s     py     pz     px    dxy    dyz    dz2    dxz  x2-y2    tot
    1  0.048  0.119  0.119  0.002  0.001  0.096  0.001  0.001  0.003  0.388
 
band    15 # energy   46.09192620 # occ.  0.00000000
 
ion      s     py     pz     px    dxy    dyz    dz2    dxz  x2-y2    tot
    1  0.004  0.000  0.000  0.186  0.054  0.022  0.007  0.054  0.020  0.346
 
band    16 # energy   47.12513034 # occ.  0.00000000
 
ion      s     py     pz     px    dxy    dyz    dz2    dxz  x2-y2    tot
    1  0.000  0.115  0.115  0.000  0.098  0.000  0.024  0.098  0.008  0.459
 
band    17 # energy   52.69299573 # occ.  0.00000000
 
ion      s     py     pz     px    dxy    dyz    dz2    dxz  x2-y2    tot
    1  0.053  0.001  0.001  0.002  0.002  0.000  0.002  0.002  0.005  0.068
 
band    18 # energy   56.24160381 # occ.  0.00000000
 
ion      s     py     pz     px    dxy    dyz    dz2    dxz  x2-y2    tot
    1  0.000  0.174  0.174  0.000  0.133  0.000  0.088  0.133  0.029  0.730
 
band    19 # energy   56.81162627 # occ.  0.00000000
 
ion      s     py     pz     px    dxy    dyz    dz2    dxz  x2-y2    tot
    1  6.296  0.000  0.000  0.000  0.000  0.000  0.000  0.000  0.000  6.296
 
band    20 # energy   60.32627286 # occ.  0.00000000
 
ion      s     py     pz     px    dxy    dyz    dz2    dxz  x2-y2    tot
    1  0.038  0.061  0.061  0.094  0.008  0.336  0.044  0.008  0.131  0.780
 
band    21 # energy   61.40561958 # occ.  0.00000000
 
ion      s     py     pz     px    dxy    dyz    dz2    dxz  x2-y2    tot
    1  0.090  0.046  0.046  0.018  0.065  0.003  0.029  0.065  0.086  0.448
 
band    22 # energy   65.52147601 # occ.  0.00000000
 
ion      s     py     pz     px    dxy    dyz    dz2    dxz  x2-y2    tot
    1  0.061  0.011  0.011  0.349  0.145  0.058  0.001  0.145  0.003  0.786
 
band    23 # energy   66.12453967 # occ.  0.00000000
 
ion      s     py     pz     px    dxy    dyz    dz2    dxz  x2-y2    tot
    1  0.000  0.134  0.134  0.000  0.013  0.000  0.126  0.013  0.042  0.462
 
band    24 # energy   72.26322323 # occ.  0.00000000
 
ion      s     py     pz     px    dxy    dyz    dz2    dxz  x2-y2    tot
    1  0.000  0.000  0.000  0.000  0.009  0.000  0.055  0.009  0.018  0.092
 

 k-point     4 :    0.35000000 0.05000000 0.05000000     weight = 0.00600000

band     1 # energy  -37.01761563 # occ.  2.00000000
 
ion      s     py     pz     px    dxy    dyz    dz2    dxz  x2-y2    tot
    1  0.000  0.357  0.357  0.266  0.000  0.000  0.000  0.000  0.000  0.981
 
band     2 # energy  -36.39530471 # occ.  2.00000000
 
ion      s     py     pz     px    dxy    dyz    dz2    dxz  x2-y2    tot
    1  0.000  0.135  0.135  0.727  0.000  0.000  0.000  0.000  0.000  0.998
 
band     3 # energy  -36.35578934 # occ.  2.00000000
 
ion      s     py     pz     px    dxy    dyz    dz2    dxz  x2-y2    tot
    1  0.000  0.499  0.499  0.000  0.000  0.000  0.000  0.000  0.000  0.999
 
band     4 # energy    7.09073272 # occ.  2.00000000
 
ion      s     py     pz     px    dxy    dyz    dz2    dxz  x2-y2    tot
    1  0.274  0.008  0.008  0.001  0.107  0.114  0.000  0.107  0.001  0.620
 
band     5 # energy   11.76924823 # occ.  2.00000000
 
ion      s     py     pz     px    dxy    dyz    dz2    dxz  x2-y2    tot
    1  0.040  0.009  0.009  0.019  0.228  0.082  0.035  0.228  0.105  0.756
 
band     6 # energy   11.96916471 # occ.  2.00000000
 
ion      s     py     pz     px    dxy    dyz    dz2    dxz  x2-y2    tot
    1  0.042  0.020  0.020  0.013  0.020  0.289  0.070  0.020  0.209  0.704
 
band     7 # energy   11.97406220 # occ.  2.00000000
 
ion      s     py     pz     px    dxy    dyz    dz2    dxz  x2-y2    tot
    1  0.000  0.000  0.000  0.000  0.221  0.000  0.320  0.221  0.107  0.869
 
band     8 # energy   15.21645203 # occ.  2.00000000
 
ion      s     py     pz     px    dxy    dyz    dz2    dxz  x2-y2    tot
    1  0.000  0.001  0.001  0.000  0.227  0.000  0.343  0.227  0.114  0.913
 
band     9 # energy   16.18688555 # occ.  2.00000000
 
ion      s     py     pz     px    dxy    dyz    dz2    dxz  x2-y2    tot
    1  0.009  0.004  0.004  0.000  0.029  0.365  0.120  0.029  0.360  0.919
 
band    10 # energy   29.32785445 # occ.  0.00000000
 
ion      s     py     pz     px    dxy    dyz    dz2    dxz  x2-y2    tot
    1  0.146  0.021  0.021  0.022  0.039  0.059  0.001  0.039  0.004  0.351
 
band    11 # energy   33.19733785 # occ.  0.00000000
 
ion      s     py     pz     px    dxy    dyz    dz2    dxz  x2-y2    tot
    1  0.046  0.023  0.023  0.026  0.068  0.038  0.000  0.068  0.001  0.292
 
band    12 # energy   39.88147978 # occ.  0.00000000
 
ion      s     py     pz     px    dxy    dyz    dz2    dxz  x2-y2    tot
    1  0.010  0.056  0.056  0.121  0.035  0.036  0.000  0.035  0.000  0.348
 
band    13 # energy   42.22569308 # occ.  0.00000000
 
ion      s     py     pz     px    dxy    dyz    dz2    dxz  x2-y2    tot
    1  0.000  0.097  0.097  0.000  0.037  0.000  0.038  0.037  0.013  0.319
 
band    14 # energy   42.51570747 # occ.  0.00000000
 
ion      s     py     pz     px    dxy    dyz    dz2    dxz  x2-y2    tot
    1  0.012  0.003  0.003  0.085  0.001  0.019  0.017  0.001  0.050  0.189
 
band    15 # energy   45.16123806 # occ.  0.00000000
 
ion      s     py     pz     px    dxy    dyz    dz2    dxz  x2-y2    tot
    1  0.024  0.013  0.013  0.025  0.001  0.000  0.019  0.001  0.056  0.152
 
band    16 # energy   45.22897145 # occ.  0.00000000
 
ion      s     py     pz     px    dxy    dyz    dz2    dxz  x2-y2    tot
    1  0.000  0.034  0.034  0.000  0.026  0.000  0.123  0.026  0.041  0.284
 
band    17 # energy   56.39058241 # occ.  0.00000000
 
ion      s     py     pz     px    dxy    dyz    dz2    dxz  x2-y2    tot
    1  0.000  0.166  0.166  0.000  0.115  0.000  0.080  0.115  0.027  0.670
 
band    18 # energy   56.80050387 # occ.  0.00000000
 
ion      s     py     pz     px    dxy    dyz    dz2    dxz  x2-y2    tot
    1  6.297  0.000  0.000  0.000  0.000  0.000  0.000  0.000  0.000  6.297
 
band    19 # energy   58.36480946 # occ.  0.00000000
 
ion      s     py     pz     px    dxy    dyz    dz2    dxz  x2-y2    tot
    1  0.083  0.000  0.000  0.016  0.000  0.085  0.012  0.000  0.037  0.233
 
band    20 # energy   60.46682065 # occ.  0.00000000
 
ion      s     py     pz     px    dxy    dyz    dz2    dxz  x2-y2    tot
    1  0.001  0.045  0.045  0.102  0.020  0.190  0.040  0.020  0.120  0.583
 
band    21 # energy   61.49266284 # occ.  0.00000000
 
ion      s     py     pz     px    dxy    dyz    dz2    dxz  x2-y2    tot
    1  0.100  0.017  0.017  0.049  0.096  0.015  0.009  0.096  0.028  0.427
 
band    22 # energy   65.05612787 # occ.  0.00000000
 
ion      s     py     pz     px    dxy    dyz    dz2    dxz  x2-y2    tot
    1  0.017  0.065  0.065  0.195  0.052  0.092  0.000  0.052  0.000  0.539
 
band    23 # energy   66.76532485 # occ.  0.00000000
 
ion      s     py     pz     px    dxy    dyz    dz2    dxz  x2-y2    tot
    1  0.000  0.147  0.147  0.000  0.018  0.000  0.073  0.018  0.024  0.428
 
band    24 # energy   71.31486049 # occ.  0.00000000
 
ion      s     py     pz     px    dxy    dyz    dz2    dxz  x2-y2    tot
    1  0.000  0.003  0.003  0.000  0.031  0.000  0.079  0.031  0.026  0.173
 

 k-point     5 :    0.45000000 0.05000000 0.05000000     weight = 0.00600000

band     1 # energy  -37.25024974 # occ.  2.00000000
 
ion      s     py     pz     px    dxy    dyz    dz2    dxz  x2-y2    tot
    1  0.000  0.337  0.337  0.302  0.000  0.000  0.000  0.000  0.000  0.975
 
band     2 # energy  -36.42406496 # occ.  2.00000000
 
ion      s     py     pz     px    dxy    dyz    dz2    dxz  x2-y2    tot
    1  0.000  0.154  0.154  0.689  0.000  0.000  0.000  0.000  0.000  0.997
 
band     3 # energy  -36.39542324 # occ.  2.00000000
 
ion      s     py     pz     px    dxy    dyz    dz2    dxz  x2-y2    tot
    1  0.000  0.499  0.499  0.000  0.000  0.000  0.000  0.000  0.000  0.998
 
band     4 # energy    7.15989447 # occ.  2.00000000
 
ion      s     py     pz     px    dxy    dyz    dz2    dxz  x2-y2    tot
    1  0.180  0.002  0.002  0.000  0.170  0.172  0.000  0.170  0.000  0.695
 
band     5 # energy   11.50487312 # occ.  2.00000000
 
ion      s     py     pz     px    dxy    dyz    dz2    dxz  x2-y2    tot
    1  0.000  0.001  0.001  0.000  0.056  0.251  0.123  0.056  0.368  0.854
 
band     6 # energy   11.64838782 # occ.  2.00000000
 
ion      s     py     pz     px    dxy    dyz    dz2    dxz  x2-y2    tot
    1  0.000  0.000  0.000  0.000  0.177  0.000  0.381  0.177  0.127  0.862
 
band     7 # energy   14.08300521 # occ.  2.00000000
 
ion      s     py     pz     px    dxy    dyz    dz2    dxz  x2-y2    tot
    1  0.053  0.055  0.055  0.057  0.092  0.007  0.011  0.092  0.032  0.454
 
band     8 # energy   16.49516793 # occ.  2.00000000
 
ion      s     py     pz     px    dxy    dyz    dz2    dxz  x2-y2    tot
    1  0.000  0.001  0.001  0.000  0.283  0.000  0.283  0.283  0.094  0.943
 
band     9 # energy   17.41164171 # occ.  0.00000000
 
ion      s     py     pz     px    dxy    dyz    dz2    dxz  x2-y2    tot
    1  0.015  0.012  0.012  0.006  0.036  0.405  0.090  0.036  0.270  0.883
 
band    10 # energy   26.27944226 # occ.  0.00000000
 
ion      s     py     pz     px    dxy    dyz    dz2    dxz  x2-y2    tot
    1  0.330  0.015  0.015  0.018  0.108  0.110  0.001  0.108  0.002  0.706
 
band    11 # energy   31.13185533 # occ.  0.00000000
 
ion      s     py     pz     px    dxy    dyz    dz2    dxz  x2-y2    tot
    1  0.012  0.009  0.009  0.009  0.017  0.002  0.001  0.017  0.002  0.079
 
band    12 # energy   37.62426481 # occ.  0.00000000
 
ion      s     py     pz     px    dxy    dyz    dz2    dxz  x2-y2    tot
    1  0.002  0.037  0.037  0.148  0.017  0.003  0.000  0.017  0.000  0.262
 
band    13 # energy   38.71052838 # occ.  0.00000000
 
ion      s     py     pz     px    dxy    dyz    dz2    dxz  x2-y2    tot
    1  0.000  0.105  0.105  0.000  0.010  0.000  0.016  0.010  0.005  0.252
 
band    14 # energy   46.63278192 # occ.  0.00000000
 
ion      s     py     pz     px    dxy    dyz    dz2    dxz  x2-y2    tot
    1  0.008  0.000  0.000  0.047  0.000  0.074  0.040  0.000  0.120  0.290
 
band    15 # energy   48.40264606 # occ.  0.00000000
 
ion      s     py     pz     px    dxy    dyz    dz2    dxz  x2-y2    tot
    1  0.043  0.014  0.014  0.003  0.050  0.001  0.022  0.050  0.065  0.263
 
band    16 # energy   48.61249921 # occ.  0.00000000
 
ion      s     py     pz     px    dxy    dyz    dz2    dxz  x2-y2    tot
    1  0.000  0.006  0.006  0.000  0.054  0.000  0.242  0.054  0.081  0.443
 
band    17 # energy   56.40387301 # occ.  0.00000000
 
ion      s     py     pz     px    dxy    dyz    dz2    dxz  x2-y2    tot
    1  0.000  0.189  0.189  0.000  0.043  0.000  0.022  0.043  0.007  0.494
 
band    18 # energy   56.80043204 # occ.  0.00000000
 
ion      s     py     pz     px    dxy    dyz    dz2    dxz  x2-y2    tot
    1  6.293  0.000  0.000  0.000  0.000  0.000  0.000  0.000  0.000  6.293
 
band    19 # energy   58.25096812 # occ.  0.00000000
 
ion      s     py     pz     px    dxy    dyz    dz2    dxz  x2-y2    tot
    1  0.085  0.001  0.001  0.094  0.023  0.152  0.008  0.023  0.024  0.411
 
band    20 # energy   58.97302829 # occ.  0.00000000
 
ion      s     py     pz     px    dxy    dyz    dz2    dxz  x2-y2    tot
    1  0.000  0.069  0.069  0.097  0.039  0.020  0.029  0.039  0.086  0.448
 
band    21 # energy   63.83473580 # occ.  0.00000000
 
ion      s     py     pz     px    dxy    dyz    dz2    dxz  x2-y2    tot
    1  0.007  0.068  0.068  0.147  0.012  0.064  0.001  0.012  0.004  0.384
 
band    22 # energy   66.23287991 # occ.  0.00000000
 
ion      s     py     pz     px    dxy    dyz    dz2    dxz  x2-y2    tot
    1  0.039  0.001  0.001  0.002  0.001  0.002  0.000  0.001  0.000  0.048
 
band    23 # energy   66.75431479 # occ.  0.00000000
 
ion      s     py     pz     px    dxy    dyz    dz2    dxz  x2-y2    tot
    1  0.000  0.096  0.096  0.000  0.009  0.000  0.033  0.009  0.011  0.254
 
band    24 # energy   68.41968545 # occ.  0.00000000
 
ion      s     py     pz     px    dxy    dyz    dz2    dxz  x2-y2    tot
    1  0.000  0.058  0.058  0.000  0.129  0.000  0.000  0.129  0.000  0.373
 

 k-point     6 :   -0.45000000 0.05000000 0.05000000     weight = 0.00600000

band     1 # energy  -37.31477129 # occ.  2.00000000
 
ion      s     py     pz     px    dxy    dyz    dz2    dxz  x2-y2    tot
    1  0.000  0.321  0.321  0.332  0.000  0.000  0.000  0.000  0.000  0.974
 
band     2 # energy  -36.42383938 # occ.  2.00000000
 
ion      s     py     pz     px    dxy    dyz    dz2    dxz  x2-y2    tot
    1  0.000  0.170  0.170  0.657  0.000  0.000  0.000  0.000  0.000  0.997
 
band     3 # energy  -36.41379857 # occ.  2.00000000
 
ion      s     py     pz     px    dxy    dyz    dz2    dxz  x2-y2    tot
    1  0.000  0.499  0.499  0.000  0.000  0.000  0.000  0.000  0.000  0.997
 
band     4 # energy    7.11700492 # occ.  2.00000000
 
ion      s     py     pz     px    dxy    dyz    dz2    dxz  x2-y2    tot
    1  0.162  0.000  0.000  0.001  0.177  0.190  0.000  0.177  0.000  0.708
 
band     5 # energy   11.37307417 # occ.  2.00000000
 
ion      s     py     pz     px    dxy    dyz    dz2    dxz  x2-y2    tot
    1  0.000  0.000  0.000  0.000  0.060  0.212  0.130  0.060  0.389  0.851
 
band     6 # energy   11.57625116 # occ.  2.00000000
 
ion      s     py     pz     px    dxy    dyz    dz2    dxz  x2-y2    tot
    1  0.000  0.000  0.000  0.000  0.174  0.000  0.384  0.174  0.128  0.860
 
band     7 # energy   14.97869735 # occ.  2.00000000
 
ion      s     py     pz     px    dxy    dyz    dz2    dxz  x2-y2    tot
    1  0.003  0.061  0.061  0.059  0.021  0.155  0.019  0.021  0.057  0.455
 
band     8 # energy   17.14782465 # occ.  0.01947885
 
ion      s     py     pz     px    dxy    dyz    dz2    dxz  x2-y2    tot
    1  0.000  0.000  0.000  0.000  0.292  0.000  0.286  0.292  0.095  0.965
 
band     9 # energy   17.79629172 # occ.  0.00000000
 
ion      s     py     pz     px    dxy    dyz    dz2    dxz  x2-y2    tot
    1  0.001  0.023  0.023  0.029  0.082  0.242  0.073  0.082  0.220  0.776
 
band    10 # energy   24.88070675 # occ.  0.00000000
 
ion      s     py     pz     px    dxy    dyz    dz2    dxz  x2-y2    tot
    1  0.428  0.001  0.001  0.000  0.139  0.138  0.000  0.139  0.000  0.848
 
band    11 # energy   30.62992975 # occ.  0.00000000
 
ion      s     py     pz     px    dxy    dyz    dz2    dxz  x2-y2    tot
    1  0.000  0.005  0.005  0.007  0.000  0.006  0.001  0.000  0.003  0.028
 
band    12 # energy   37.29948371 # occ.  0.00000000
 
ion      s     py     pz     px    dxy    dyz    dz2    dxz  x2-y2    tot
    1  0.000  0.108  0.108  0.000  0.001  0.000  0.003  0.001  0.001  0.223
 
band    13 # energy   37.33388331 # occ.  0.00000000
 
ion      s     py     pz     px    dxy    dyz    dz2    dxz  x2-y2    tot
    1  0.001  0.036  0.036  0.141  0.003  0.009  0.002  0.003  0.007  0.238
 
band    14 # energy   48.98797807 # occ.  0.00000000
 
ion      s     py     pz     px    dxy    dyz    dz2    dxz  x2-y2    tot
    1  0.000  0.006  0.006  0.000  0.062  0.000  0.257  0.062  0.086  0.477
 
band    15 # energy   49.34024117 # occ.  0.00000000
 
ion      s     py     pz     px    dxy    dyz    dz2    dxz  x2-y2    tot
    1  0.000  0.000  0.000  0.004  0.022  0.083  0.091  0.022  0.272  0.495
 
band    16 # energy   50.52996000 # occ.  0.00000000
 
ion      s     py     pz     px    dxy    dyz    dz2    dxz  x2-y2    tot
    1  0.081  0.004  0.004  0.000  0.073  0.089  0.000  0.073  0.001  0.327
 
band    17 # energy   55.69541411 # occ.  0.00000000
 
ion      s     py     pz     px    dxy    dyz    dz2    dxz  x2-y2    tot
    1  0.018  0.065  0.065  0.002  0.016  0.000  0.001  0.016  0.003  0.186
 
band    18 # energy   56.66741500 # occ.  0.00000000
 
ion      s     py     pz     px    dxy    dyz    dz2    dxz  x2-y2    tot
    1  0.205  0.033  0.033  0.268  0.000  0.000  0.002  0.000  0.007  0.550
 
band    19 # energy   56.81146186 # occ.  0.00000000
 
ion      s     py     pz     px    dxy    dyz    dz2    dxz  x2-y2    tot
    1  6.092  0.001  0.001  0.007  0.000  0.000  0.000  0.000  0.000  6.102
 
band    20 # energy   57.71076753 # occ.  0.00000000
 
ion      s     py     pz     px    dxy    dyz    dz2    dxz  x2-y2    tot
    1  0.000  0.179  0.179  0.000  0.005  0.000  0.031  0.005  0.010  0.409
 
band    21 # energy   64.80959471 # occ.  0.00000000
 
ion      s     py     pz     px    dxy    dyz    dz2    dxz  x2-y2    tot
    1  0.000  0.097  0.097  0.000  0.068  0.000  0.000  0.068  0.000  0.330
 
band    22 # energy   65.29933279 # occ.  0.00000000
 
ion      s     py     pz     px    dxy    dyz    dz2    dxz  x2-y2    tot
    1  0.012  0.025  0.025  0.099  0.015  0.063  0.000  0.015  0.001  0.256
 