Co-fcc                                  
   1.00000000000000     
     0.000000    1.859524    1.859524
     1.859524    0.000000    1.859524
     1.859524    1.859524    0.000000
   Co
     1
Direct
  0.000000  0.000000  0.000000
 
   36   36   36
  122.39      119.98      113.04      102.39      89.188      74.691      60.074      46.305      34.105      23.957    
  16.109      10.567      7.0941      5.2296      4.3629      3.8775      3.5480      3.3608      3.3007      3.3608    
  3.5480      3.8775      4.3629      5.2296      7.0941      10.567      16.109      23.957      34.105      46.305    
  60.074      74.691      89.188      102.39      113.04      119.98      119.98      115.31      106.52      94.620    
  80.820      66.339      52.241      39.365      28.307      19.430      12.861      8.4821      5.9388      4.6858    
  4.0828      3.6809      3.4274      3.3067      3.3067      3.4274      3.6809      4.0828      4.6858      5.9388    
  8.4821      12.861      19.430      28.307      39.365      52.241      66.339      80.820      94.620      106.52    
  115.31      119.98      113.04      106.52      96.505      84.069      70.394      56.588      43.576      32.054    
  22.494      15.133      9.9739      6.7742      5.0776      4.2857      3.8190      3.5027      3.3237      3.2662    
  3.3237      3.5027      3.8190      4.2857      5.0776      6.7742      9.9739      15.133      22.494      32.054    
  43.576      56.588      70.394      84.069      96.505      106.52      113.04      115.31      102.39      94.620    
  84.069      71.798      58.888      46.299      34.806      24.970      17.130      11.400      7.6489      5.5222    
  4.4902      3.9536      3.5816      3.3489      3.2387      3.2387      3.3489      3.5816      3.9536      4.4902    
  5.5222      7.6489      11.400      17.131      24.970      34.806      46.299      58.888      71.798      84.069    
  94.620      102.39      106.52      106.52      89.188      80.820      70.394      58.888      47.242      36.264    
  26.580      18.616      12.581      8.4496      5.9710      4.6995      4.0760      3.6580      3.3786      3.2220    
  3.1719      3.2220      3.3786      3.6580      4.0760      4.6995      5.9710      8.4496      12.581      18.616    
  26.580      36.264      47.242      58.888      70.394      80.820      89.188      94.620      96.505      94.620    
  74.691      66.339      56.588      46.299      36.264      27.139      19.409      13.360      9.0616      6.3586    
  4.8956      4.1785      3.7259      3.4084      3.2129      3.1211      3.1211      3.2129      3.4084      3.7259    
  4.1785      4.8955      6.3586      9.0616      13.360      19.409      27.139      36.264      46.299      56.588    
  66.339      74.691      80.820      84.069      84.069      80.820      60.074      52.241      43.576      34.806    
  26.580      19.409      13.632      9.3931      6.6217      5.0499      4.2580      3.7807      3.4349      3.2086    
  3.0833      3.0436      3.0833      3.2086      3.4349      3.7807      4.2580      5.0499      6.6217      9.3931    
  13.632      19.409      26.580      34.806      43.576      52.241      60.074      66.339      70.394      71.798    
  70.394      66.339      46.305      39.365      32.054      24.970      18.616      13.360      9.3931      6.7149    
  5.1353      4.3098      3.8188      3.4553      3.2067      3.0562      2.9862      2.9862      3.0562      3.2067    
  3.4553      3.8188      4.3097      5.1353      6.7149      9.3931      13.360      18.616      24.970      32.054    
  39.365      46.305      52.241      56.588      58.888      58.888      56.588      52.241      34.105      28.307    
  22.494      17.130      12.581      9.0616      6.6217      5.1353      4.3279      3.8383      3.4680      3.2060    
  3.0378      2.9458      2.9167      2.9458      3.0378      3.2060      3.4680      3.8383      4.3278      5.1353    
  6.6217      9.0616      12.581      17.130      22.494      28.307      34.105      39.365      43.576      46.299    
  47.242      46.299      43.576      39.365      23.957      19.430      15.133      11.400      8.4496      6.3586    
  5.0499      4.3098      3.8383      3.4723      3.2058      3.0270      2.9200      2.8705      2.8705      2.9200    
  3.0270      3.2058      3.4723      3.8383      4.3097      5.0499      6.3586      8.4496      11.400      15.133    
  19.430      23.957      28.307      32.054      34.806      36.264      36.264      34.806      32.054      28.307    
  16.109      12.861      9.9739      7.6489      5.9710      4.8956      4.2580      3.8188      3.4680      3.2058    
  3.0235      2.9075      2.8442      2.8243      2.8442      2.9075      3.0235      3.2058      3.4680      3.8188    
  4.2580      4.8955      5.9710      7.6489      9.9739      12.861      16.109      19.430      22.494      24.970    
  26.580      27.139      26.580      24.970      22.494      19.430      10.567      8.4821      6.7742      5.5222    
  4.6995      4.1785      3.7807      3.4553      3.2060      3.0270      2.9075      2.8357      2.8024      2.8024    
  2.8357      2.9075      3.0270      3.2060      3.4553      3.7807      4.1786      4.6995      5.5222      6.7742    
  8.4821      10.567      12.861      15.133      17.130      18.616      19.409      19.409      18.616      17.131    
  15.133      12.861      7.0941      5.9388      5.0776      4.4902      4.0760      3.7259      3.4349      3.2067    
  3.0378      2.9200      2.8442      2.8024      2.7890      2.8024      2.8442      2.9200      3.0378      3.2067    
  3.4349      3.7259      4.0760      4.4903      5.0776      5.9388      7.0941      8.4821      9.9739      11.400    
  12.581      13.360      13.632      13.360      12.581      11.400      9.9739      8.4821      5.2296      4.6858    
  4.2857      3.9536      3.6580      3.4084      3.2086      3.0562      2.9458      2.8705      2.8243      2.8024    
  2.8024      2.8243      2.8705      2.9458      3.0562      3.2086      3.4084      3.6580      3.9537      4.2857    
  4.6858      5.2296      5.9388      6.7742      7.6489      8.4496      9.0616      9.3931      9.3931      9.0616    
  8.4496      7.6489      6.7742      5.9388      4.3629      4.0828      3.8190      3.5816      3.3786      3.2129    
  3.0833      2.9862      2.9167      2.8705      2.8442      2.8357      2.8442      2.8705      2.9167      2.9862    
  3.0833      3.2129      3.3786      3.5816      3.8190      4.0828      4.3630      4.6858      5.0776      5.5222    
  5.9710      6.3586      6.6217      6.7149      6.6217      6.3586      5.9710      5.5222      5.0776      4.6858    
  3.8775      3.6809      3.5027      3.3489      3.2220      3.1211      3.0436      2.9862      2.9458      2.9200    
  2.9075      2.9075      2.9200      2.9458      2.9862      3.0436      3.1211      3.2220      3.3489      3.5027    
  3.6809      3.8775      4.0828      4.2857      4.4903      4.6995      4.8955      5.0499      5.1353      5.1353    
  5.0499      4.8955      4.6995      4.4902      4.2857      4.0828      3.5480      3.4274      3.3237      3.2387    
  3.1719      3.1211      3.0833      3.0562      3.0378      3.0270      3.0235      3.0270      3.0378      3.0562    
  3.0833      3.1211      3.1719      3.2387      3.3237      3.4274      3.5480      3.6809      3.8190      3.9537    
  4.0760      4.1786      4.2580      4.3097      4.3278      4.3097      4.2580      4.1785      4.0760      3.9536    
  3.8190      3.6809      3.3608      3.3067      3.2662      3.2387      3.2220      3.2129      3.2086      3.2067    
  3.2060      3.2058      3.2058      3.2060      3.2067      3.2086      3.2129      3.2220      3.2387      3.2662    
  3.3067      3.3608      3.4274      3.5027      3.5816      3.6580      3.7259      3.7807      3.8188      3.8383    
  3.8383      3.8188      3.7807      3.7259      3.6580      3.5816      3.5027      3.4274      3.3007      3.3067    
  3.3237      3.3489      3.3786      3.4084      3.4349      3.4553      3.4680      3.4723      3.4680      3.4553    
  3.4349      3.4084      3.3786      3.3489      3.3237      3.3067      3.3006      3.3067      3.3237      3.3489    
  3.3786      3.4084      3.4349      3.4553      3.4680      3.4723      3.4680      3.4553      3.4349      3.4084    
  3.3786      3.3489      3.3237      3.3067      3.3608      3.4274      3.5027      3.5816      3.6580      3.7259    
  3.7807      3.8188      3.8383      3.8383      3.8188      3.7807      3.7259      3.6580      3.5816      3.5027    
  3.4274      3.3608      3.3067      3.2662      3.2387      3.2220      3.2129      3.2086      3.2067      3.2060    
  3.2058      3.2058      3.2060      3.2067      3.2086      3.2129      3.2220      3.2387      3.2662      3.3067    
  3.5480      3.6809      3.8190      3.9536      4.0760      4.1785      4.2580      4.3097      4.3278      4.3097    
  4.2580      4.1786      4.0760      3.9537      3.8190      3.6809      3.5480      3.4274      3.3237      3.2387    
  3.1719      3.1211      3.0833      3.0562      3.0378      3.0270      3.0235      3.0270      3.0378      3.0562    
  3.0833      3.1211      3.1719      3.2387      3.3237      3.4274      3.8775      4.0828      4.2857      4.4902    
  4.6995      4.8955      5.0499      5.1353      5.1353      5.0499      4.8955      4.6995      4.4903      4.2857    
  4.0828      3.8775      3.6809      3.5027      3.3489      3.2220      3.1211      3.0436      2.9862      2.9458    
  2.9200      2.9075      2.9075      2.9200      2.9458      2.9862      3.0436      3.1211      3.2220      3.3489    
  3.5027      3.6809      4.3629      4.6858      5.0776      5.5222      5.9710      6.3586      6.6217      6.7149    
  6.6217      6.3586      5.9710      5.5222      5.0776      4.6858      4.3630      4.0828      3.8190      3.5816    
  3.3786      3.2129      3.0833      2.9862      2.9167      2.8705      2.8442      2.8357      2.8442      2.8705    
  2.9167      2.9862      3.0833      3.2129      3.3786      3.5816      3.8190      4.0828      5.2296      5.9388    
  6.7742      7.6489      8.4496      9.0616      9.3931      9.3931      9.0616      8.4496      7.6489      6.7742    
  5.9388      5.2296      4.6858      4.2857      3.9537      3.6580      3.4084      3.2086      3.0562      2.9458    
  2.8705      2.8243      2.8024      2.8024      2.8243      2.8705      2.9458      3.0562      3.2086      3.4084    
  3.6580      3.9536      4.2857      4.6858      7.0941      8.4821      9.9739      11.400      12.581      13.360    
  13.632      13.360      12.581      11.400      9.9739      8.4821      7.0941      5.9388      5.0776      4.4903    
  4.0760      3.7259      3.4349      3.2067      3.0378      2.9200      2.8442      2.8024      2.7890      2.8024    
  2.8442      2.9200      3.0378      3.2067      3.4349      3.7259      4.0760      4.4902      5.0776      5.9388    
  10.567      12.861      15.133      17.131      18.616      19.409      19.409      18.616      17.130      15.133    
  12.861      10.567      8.4821      6.7742      5.5222      4.6995      4.1786      3.7807      3.4553      3.2060    
  3.0270      2.9075      2.8357      2.8024      2.8024      2.8357      2.9075      3.0270      3.2060      3.4553    
  3.7807      4.1785      4.6995      5.5222      6.7742      8.4821      16.109      19.430      22.494      24.970    
  26.580      27.139      26.580      24.970      22.494      19.430      16.109      12.861      9.9739      7.6489    
  5.9710      4.8955      4.2580      3.8188      3.4680      3.2058      3.0235      2.9075      2.8442      2.8243    
  2.8442      2.9075      3.0235      3.2058      3.4680      3.8188      4.2580      4.8956      5.9710      7.6489    
  9.9739      12.861      23.957      28.307      32.054      34.806      36.264      36.264      34.806      32.054    
  28.307      23.957      19.430      15.133      11.400      8.4496      6.3586      5.0499      4.3097      3.8383    
  3.4723      3.2058      3.0270      2.9200      2.8705      2.8705      2.9200      3.0270      3.2058      3.4723    
  3.8383      4.3098      5.0499      6.3586      8.4496      11.400      15.133      19.430      34.105      39.365    
  43.576      46.299      47.242      46.299      43.576      39.365      34.105      28.307      22.494      17.130    
  12.581      9.0616      6.6217      5.1353      4.3278      3.8383      3.4680      3.2060      3.0378      2.9458    
  2.9167      2.9458      3.0378      3.2060      3.4680      3.8383      4.3279      5.1353      6.6217      9.0616    
  12.581      17.130      22.494      28.307      46.305      52.241      56.588      58.888      58.888      56.588    
  52.241      46.305      39.365      32.054      24.970      18.616      13.360      9.3931      6.7149      5.1353    
  4.3097      3.8188      3.4553      3.2067      3.0562      2.9862      2.9862      3.0562      3.2067      3.4553    
  3.8188      4.3098      5.1353      6.7149      9.3931      13.360      18.616      24.970      32.054      39.365    
  60.074      66.339      70.394      71.798      70.394      66.339      60.074      52.241      43.576      34.806    
  26.580      19.409      13.632      9.3931      6.6217      5.0499      4.2580      3.7807      3.4349      3.2086    
  3.0833      3.0436      3.0833      3.2086      3.4349      3.7807      4.2580      5.0499      6.6217      9.3931    
  13.632      19.409      26.580      34.806      43.576      52.241      74.691      80.820      84.069      84.069    
  80.820      74.691      66.339      56.588      46.299      36.264      27.139      19.409      13.360      9.0616    
  6.3586      4.8955      4.1785      3.7259      3.4084      3.2129      3.1211      3.1211      3.2129      3.4084    
  3.7259      4.1785      4.8956      6.3586      9.0616      13.360      19.409      27.139      36.264      46.299    
  56.588      66.339      89.188      94.620      96.505      94.620      89.188      80.820      70.394      58.888    
  47.242      36.264      26.580      18.616      12.581      8.4496      5.9710      4.6995      4.0760      3.6580    
  3.3786      3.2220      3.1719      3.2220      3.3786      3.6580      4.0760      4.6995      5.9710      8.4496    
  12.581      18.616      26.580      36.264      47.242      58.888      70.394      80.820      102.39      106.52    
  106.52      102.39      94.620      84.069      71.798      58.888      46.299      34.806      24.970      17.131    
  11.400      7.6489      5.5222      4.4902      3.9536      3.5816      3.3489      3.2387      3.2387      3.3489    
  3.5816      3.9536      4.4902      5.5222      7.6489      11.400      17.130      24.970      34.806      46.299    
  58.888      71.798      84.069      94.620      113.04      115.31      113.04      106.52      96.505      84.069    
  70.394      56.588      43.576      32.054      22.494      15.133      9.9739      6.7742      5.0776      4.2857    
  3.8190      3.5027      3.3237      3.2662      3.3237      3.5027      3.8190      4.2857      5.0776      6.7742    
  9.9739      15.133      22.494      32.054      43.576      56.588      70.394      84.069      96.505      106.52    
  119.98      119.98      115.31      106.52      94.620      80.820      66.339      52.241      39.365      28.307    
  19.430      12.861      8.4821      5.9388      4.6858      4.0828      3.6809      3.4274      3.3067      3.3067    
  3.4274      3.6809      4.0828      4.6858      5.9388      8.4821      12.861      19.430      28.307      39.365    
  52.241      66.339      80.820      94.620      106.52      115.31      119.98      115.31      106.52      94.620    
  80.820      66.339      52.241      39.365      28.307      19.430      12.861      8.4821      5.9388      4.6858    
  4.0828      3.6809      3.4274      3.3067      3.3067      3.4274      3.6809      4.0828      4.6858      5.9388    
  8.4821      12.861      19.430      28.307      39.365      52.241      66.339      80.820      94.620      106.52    
  115.31      119.98      115.31      108.66      98.460      85.792      71.861      57.796      44.531      32.778    
  23.012      15.479      10.184      6.8890      5.1345      4.3172      3.8436      3.5224      3.3404      3.2820    
  3.3404      3.5224      3.8436      4.3172      5.1345      6.8890      10.184      15.479      23.012      32.778    
  44.531      57.796      71.861      85.792      98.460      108.66      115.31      117.61      106.52      98.460    
  87.516      74.789      61.395      48.324      36.374      26.122      17.925      11.904      7.9371      5.6697    
  4.5650      4.0067      3.6236      3.3833      3.2694      3.2694      3.3833      3.6236      4.0067      4.5650    
  5.6697      7.9371      11.904      17.925      26.122      36.374      48.324      61.394      74.789      87.516    
  98.460      106.52      110.80      110.80      94.620      85.792      74.789      62.641      50.333      38.708    
  28.420      19.921      13.437      8.9597      6.2424      4.8343      4.1599      3.7241      3.4315      3.2670    
  3.2144      3.2670      3.4315      3.7241      4.1599      4.8343      6.2424      8.9597      13.437      19.921    
  28.420      38.708      50.333      62.641      74.789      85.792      94.620      100.35      102.34      100.35    
  80.820      71.861      61.395      50.333      39.516      29.641      21.227      14.589      9.8194      6.7771    
  5.1056      4.2958      3.8170      3.4801      3.2717      3.1736      3.1736      3.2717      3.4801      3.8170    
  4.2958      5.1056      6.7771      9.8194      14.589      21.227      29.641      39.516      50.333      61.394    
  71.861      80.820      87.393      90.876      90.876      87.393      66.339      57.796      48.324      38.708    
  29.641      21.681      15.206      10.392      7.1918      5.3423      4.4126      3.8957      3.5245      3.2801    
  3.1443      3.1011      3.1443      3.2801      3.5245      3.8957      4.4126      5.3423      7.1918      10.392    
  15.206      21.681      29.641      38.708      48.324      57.796      66.339      73.164      77.579      79.108    
  77.579      73.164      52.241      44.531      36.374      28.420      21.227      15.206      10.594      7.4184    
  5.5045      4.5014      3.9552      3.5608      3.2891      3.1238      3.0468      3.0468      3.1238      3.2891    
  3.5608      3.9552      4.5014      5.5045      7.4184      10.594      15.206      21.227      28.420      36.374    
  44.531      52.241      58.819      63.628      66.169      66.169      63.628      58.819      39.365      32.778    
  26.122      19.921      14.589      10.392      7.4184      5.5623      4.5498      3.9921      3.5863      3.2968    
  3.1099      3.0075      2.9751      3.0075      3.1099      3.2968      3.5863      3.9921      4.5498      5.5623    
  7.4184      10.392      14.589      19.921      26.122      32.778      39.365      45.311      50.053      53.115    
  54.173      53.115      50.053      45.311      28.307      23.012      17.925      13.437      9.8194      7.1918    
  5.5045      4.5498      4.0046      3.5994      3.3017      3.1012      2.9809      2.9252      2.9252      2.9809    
  3.1012      3.3017      3.5994      4.0046      4.5498      5.5045      7.1918      9.8193      13.437      17.925    
  23.012      28.307      33.352      37.670      40.828      42.497      42.497      40.828      37.670      33.352    
  19.430      15.479      11.904      8.9597      6.7771      5.3423      4.5014      3.9921      3.5994      3.3034    
  3.0970      2.9654      2.8938      2.8712      2.8938      2.9654      3.0970      3.3034      3.5994      3.9921    
  4.5014      5.3423      6.7771      8.9597      11.904      15.479      19.430      23.417      27.057      29.978    
  31.870      32.525      31.870      29.978      27.057      23.417      12.861      10.184      7.9371      6.2424    
  5.1056      4.4126      3.9552      3.5863      3.3017      3.0970      2.9604      2.8787      2.8409      2.8409    
  2.8787      2.9604      3.0970      3.3017      3.5863      3.9552      4.4126      5.1056      6.2424      7.9371    
  10.184      12.861      15.747      18.564      21.011      22.818      23.778      23.778      22.818      21.011    
  18.564      15.747      8.4821      6.8890      5.6697      4.8343      4.2958      3.8957      3.5608      3.2968    
  3.1012      2.9654      2.8787      2.8311      2.8160      2.8311      2.8787      2.9654      3.1012      3.2968    
  3.5608      3.8957      4.2958      4.8343      5.6697      6.8890      8.4821      10.346      12.306      14.148    
  15.656      16.643      16.987      16.643      15.656      14.148      12.306      10.346      5.9388      5.1345    
  4.5650      4.1599      3.8170      3.5245      3.2891      3.1099      2.9809      2.8938      2.8409      2.8160    
  2.8160      2.8409      2.8938      2.9809      3.1099      3.2891      3.5245      3.8170      4.1599      4.5650    
  5.1345      5.9388      6.9727      8.1609      9.3772      10.471      11.297      11.741      11.741      11.297    
  10.471      9.3773      8.1610      6.9727      4.6858      4.3172      4.0067      3.7241      3.4801      3.2801    
  3.1238      3.0075      2.9252      2.8712      2.8409      2.8311      2.8409      2.8712      2.9252      3.0075    
  3.1238      3.2801      3.4801      3.7241      4.0067      4.3172      4.6858      5.1692      5.7727      6.4507    
  7.1225      7.6935      8.0767      8.2116      8.0767      7.6935      7.1225      6.4507      5.7727      5.1692    
  4.0828      3.8436      3.6236      3.4315      3.2717      3.1443      3.0468      2.9751      2.9252      2.8938    
  2.8787      2.8787      2.8938      2.9252      2.9751      3.0468      3.1443      3.2717      3.4315      3.6236    
  3.8436      4.0828      4.3303      4.6031      4.9171      5.2543      5.5729      5.8226      5.9600      5.9600    
  5.8226      5.5729      5.2543      4.9171      4.6031      4.3303      3.6809      3.5224      3.3833      3.2670    
  3.1736      3.1011      3.0468      3.0075      2.9809      2.9654      2.9604      2.9654      2.9809      3.0075    
  3.0468      3.1011      3.1736      3.2670      3.3833      3.5224      3.6809      3.8522      4.0270      4.1944    
  4.3516      4.4996      4.6260      4.7124      4.7431      4.7124      4.6260      4.4995      4.3515      4.1944    
  4.0269      3.8522      3.4274      3.3404      3.2694      3.2144      3.1736      3.1443      3.1238      3.1099    
  3.1012      3.0970      3.0970      3.1012      3.1099      3.1238      3.1443      3.1736      3.2143      3.2694    
  3.3404      3.4274      3.5278      3.6366      3.7472      3.8519      3.9435      4.0165      4.0669      4.0927    
  4.0927      4.0668      4.0164      3.9435      3.8518      3.7472      3.6366      3.5277      3.3067      3.2820    
  3.2694      3.2670      3.2717      3.2801      3.2891      3.2968      3.3017      3.3034      3.3017      3.2968    
  3.2891      3.2801      3.2717      3.2670      3.2694      3.2820      3.3067      3.3437      3.3911      3.4451    
  3.5010      3.5537      3.5986      3.6326      3.6536      3.6607      3.6536      3.6325      3.5986      3.5536    
  3.5010      3.4451      3.3911      3.3437      3.3067      3.3404      3.3833      3.4315      3.4801      3.5245    
  3.5608      3.5863      3.5994      3.5994      3.5863      3.5608      3.5245      3.4801      3.4315      3.3833    
  3.3404      3.3067      3.2845      3.2743      3.2747      3.2828      3.2950      3.3081      3.3195      3.3277    
  3.3319      3.3319      3.3277      3.3195      3.3081      3.2950      3.2828      3.2747      3.2743      3.2845    
  3.4274      3.5224      3.6236      3.7241      3.8170      3.8957      3.9552      3.9921      4.0046      3.9921    
  3.9552      3.8957      3.8170      3.7241      3.6236      3.5224      3.4274      3.3437      3.2743      3.2201    
  3.1797      3.1507      3.1302      3.1161      3.1067      3.1012      3.0993      3.1012      3.1067      3.1161    
  3.1303      3.1507      3.1797      3.2201      3.2743      3.3437      3.6809      3.8436      4.0067      4.1599    
  4.2958      4.4126      4.5014      4.5498      4.5498      4.5014      4.4126      4.2958      4.1599      4.0067    
  3.8436      3.6809      3.5278      3.3911      3.2747      3.1797      3.1046      3.0470      3.0041      2.9735    
  2.9537      2.9439      2.9439      2.9537      2.9735      3.0041      3.0470      3.1047      3.1797      3.2747    
  3.3911      3.5277      4.0828      4.3172      4.5650      4.8343      5.1056      5.3423      5.5045      5.5623    
  5.5045      5.3423      5.1056      4.8343      4.5650      4.3172      4.0828      3.8522      3.6366      3.4451    
  3.2828      3.1507      3.0470      2.9686      2.9117      2.8732      2.8510      2.8437      2.8510      2.8732    
  2.9117      2.9686      3.0470      3.1507      3.2828      3.4451      3.6366      3.8522      4.6858      5.1345    
  5.6697      6.2424      6.7771      7.1918      7.4184      7.4184      7.1918      6.7771      6.2424      5.6697    
  5.1345      4.6858      4.3303      4.0270      3.7472      3.5010      3.2950      3.1302      3.0041      2.9117    
  2.8478      2.8080      2.7889      2.7889      2.8080      2.8478      2.9117      3.0041      3.1303      3.2950    
  3.5010      3.7472      4.0270      4.3303      5.9388      6.8890      7.9371      8.9597      9.8194      10.392    
  10.594      10.392      9.8193      8.9597      7.9371      6.8890      5.9388      5.1692      4.6031      4.1944    
  3.8519      3.5537      3.3081      3.1161      2.9735      2.8732      2.8080      2.7715      2.7599      2.7715    
  2.8080      2.8732      2.9735      3.1161      3.3081      3.5537      3.8518      4.1944      4.6031      5.1692    
  8.4821      10.184      11.904      13.437      14.589      15.206      15.206      14.589      13.437      11.904    
  10.184      8.4821      6.9727      5.7727      4.9171      4.3516      3.9435      3.5986      3.3195      3.1067    
  2.9537      2.8510      2.7889      2.7599      2.7599      2.7889      2.8510      2.9537      3.1067      3.3195    
  3.5986      3.9435      4.3516      4.9171      5.7727      6.9727      12.861      15.479      17.925      19.921    
  21.227      21.681      21.227      19.921      17.925      15.479      12.861      10.346      8.1609      6.4507    
  5.2543      4.4996      4.0165      3.6326      3.3277      3.1012      2.9439      2.8437      2.7889      2.7715    
  2.7889      2.8437      2.9439      3.1012      3.3277      3.6326      4.0165      4.4996      5.2543      6.4507    
  8.1610      10.346      19.430      23.012      26.122      28.420      29.641      29.641      28.420      26.122    
  23.012      19.430      15.747      12.306      9.3772      7.1225      5.5729      4.6260      4.0669      3.6536    
  3.3319      3.0993      2.9439      2.8510      2.8080      2.8080      2.8510      2.9439      3.0993      3.3319    
  3.6536      4.0669      4.6260      5.5729      7.1225      9.3773      12.306      15.747      28.307      32.778    
  36.374      38.708      39.516      38.708      36.374      32.778      28.307      23.417      18.564      14.148    
  10.471      7.6935      5.8226      4.7124      4.0927      3.6607      3.3319      3.1012      2.9537      2.8732    
  2.8478      2.8732      2.9537      3.1012      3.3319      3.6607      4.0927      4.7124      5.8226      7.6935    
  10.471      14.148      18.564      23.417      39.365      44.531      48.324      50.333      50.333      48.324    
  44.531      39.365      33.352      27.057      21.011      15.656      11.297      8.0767      5.9600      4.7431    
  4.0927      3.6536      3.3277      3.1067      2.9735      2.9117      2.9117      2.9735      3.1067      3.3277    
  3.6536      4.0927      4.7432      5.9600      8.0767      11.297      15.656      21.011      27.057      33.352    
  52.241      57.796      61.394      62.641      61.394      57.796      52.241      45.311      37.670      29.978    
  22.818      16.643      11.741      8.2116      5.9600      4.7124      4.0668      3.6325      3.3195      3.1161    
  3.0041      2.9686      3.0041      3.1161      3.3195      3.6326      4.0669      4.7124      5.9600      8.2116    
  11.741      16.643      22.818      29.978      37.670      45.311      66.339      71.861      74.789      74.789    
  71.861      66.339      58.819      50.053      40.828      31.870      23.778      16.987      11.741      8.0767    
  5.8226      4.6260      4.0164      3.5986      3.3081      3.1303      3.0470      3.0470      3.1303      3.3081    
  3.5986      4.0165      4.6260      5.8226      8.0767      11.741      16.987      23.778      31.870      40.828    
  50.053      58.819      80.820      85.792      87.516      85.792      80.820      73.164      63.628      53.115    
  42.497      32.525      23.778      16.643      11.297      7.6935      5.5729      4.4995      3.9435      3.5536    
  3.2950      3.1507      3.1047      3.1507      3.2950      3.5537      3.9435      4.4996      5.5729      7.6935    
  11.297      16.643      23.778      32.525      42.497      53.115      63.628      73.164      94.620      98.460    