Co-fcc                                  
   1.00000000000000     
     0.000000    1.859524    1.859524
     1.859524    0.000000    1.859524
     1.859524    1.859524    0.000000
   Co
     1
Direct
  0.000000  0.000000  0.000000
 
   36   36   36
 0.12239465567E+03 0.11998219460E+03 0.11304167720E+03 0.10239201965E+03 0.89188058190E+02
 0.74691316913E+02 0.60074435833E+02 0.46304658036E+02 0.34104919753E+02 0.23957158082E+02
 0.16108898234E+02 0.10567288137E+02 0.70941345975E+01 0.52295981932E+01 0.43629440333E+01
 0.38774651557E+01 0.35479806182E+01 0.33608367898E+01 0.33006578940E+01 0.33608367898E+01
 0.35479806182E+01 0.38774651557E+01 0.43629440333E+01 0.52295981932E+01 0.70941345975E+01
 0.10567288137E+02 0.16108898234E+02 0.23957158082E+02 0.34104919753E+02 0.46304658036E+02
 0.60074435833E+02 0.74691316913E+02 0.89188058190E+02 0.10239201965E+03 0.11304167720E+03
 0.11998219460E+03 0.11998219460E+03 0.11530694977E+03 0.10652094567E+03 0.94620433147E+02
 0.80820489991E+02 0.66339122778E+02 0.52241431644E+02 0.39365274933E+02 0.28307433565E+02
 0.19430345796E+02 0.12860989967E+02 0.84820851836E+01 0.59387827291E+01 0.46858206431E+01
 0.40827599604E+01 0.36809079347E+01 0.34273649904E+01 0.33066642529E+01 0.33066628596E+01
 0.34273614026E+01 0.36809036803E+01 0.40827568761E+01 0.46858201322E+01 0.59387852330E+01
 0.84820900720E+01 0.12860995889E+02 0.19430351300E+02 0.28307437711E+02 0.39365277612E+02
 0.52241433494E+02 0.66339124744E+02 0.80820492765E+02 0.94620436780E+02 0.10652094949E+03
 0.11530695271E+03 0.11998219571E+03 0.11304167720E+03 0.10652094567E+03 0.96504796368E+02
 0.84068660691E+02 0.70394016809E+02 0.56588430116E+02 0.43575644511E+02 0.32054252896E+02
 0.22493580229E+02 0.15133198550E+02 0.99739170206E+01 0.67742308105E+01 0.50775792204E+01
 0.42857011925E+01 0.38190151989E+01 0.35027019233E+01 0.33236801039E+01 0.32662100024E+01
 0.33236755212E+01 0.35026946184E+01 0.38190081701E+01 0.42856974306E+01 0.50775806035E+01
 0.67742374758E+01 0.99739274347E+01 0.15133210208E+02 0.22493590639E+02 0.32054260447E+02
 0.43575648862E+02 0.56588432031E+02 0.70394017559E+02 0.84068661368E+02 0.96504797436E+02
 0.10652094691E+03 0.11304167805E+03 0.11530695271E+03 0.10239201965E+03 0.94620433147E+02
 0.84068660691E+02 0.71798143428E+02 0.58887841178E+02 0.46299469839E+02 0.34806421268E+02
 0.24969704995E+02 0.17130494597E+02 0.11399772699E+02 0.76489388102E+01 0.55222321344E+01
 0.44902471874E+01 0.39536463486E+01 0.35815918882E+01 0.33489398155E+01 0.32387418137E+01
 0.32387391115E+01 0.33489326835E+01 0.35815829310E+01 0.39536389553E+01 0.44902444422E+01
 0.55222358426E+01 0.76489489502E+01 0.11399787448E+02 0.17130510891E+02 0.24969719417E+02
 0.34806430976E+02 0.46299473254E+02 0.58887838284E+02 0.71798135652E+02 0.84068650445E+02
 0.94620423208E+02 0.10239201252E+03 0.10652094691E+03 0.10652094949E+03 0.89188058190E+02
 0.80820489991E+02 0.70394016809E+02 0.58887841178E+02 0.47242141366E+02 0.36264006694E+02
 0.26580302294E+02 0.18616431373E+02 0.12580557654E+02 0.84495805282E+01 0.59709830582E+01
 0.46994708025E+01 0.40759780420E+01 0.36579581756E+01 0.33785676846E+01 0.32219721902E+01
 0.31719370265E+01 0.32219682662E+01 0.33785607970E+01 0.36579501697E+01 0.40759714166E+01
 0.46994682320E+01 0.59709866684E+01 0.84495910798E+01 0.12580573920E+02 0.18616450034E+02
 0.26580318557E+02 0.36264015565E+02 0.47242139256E+02 0.58887827278E+02 0.70393993722E+02
 0.80820463270E+02 0.89188034845E+02 0.94620423208E+02 0.96504797436E+02 0.94620436780E+02
 0.74691316913E+02 0.66339122778E+02 0.56588430116E+02 0.46299469839E+02 0.36264006694E+02
 0.27139018771E+02 0.19408877675E+02 0.13360094145E+02 0.90616186244E+01 0.63586181635E+01
 0.48955500713E+01 0.41785482313E+01 0.37259290144E+01 0.34084254590E+01 0.32128863476E+01
 0.31210691639E+01 0.31210686482E+01 0.32128844215E+01 0.34084213779E+01 0.37259226092E+01
 0.41785407568E+01 0.48955443316E+01 0.63586175972E+01 0.90616256369E+01 0.13360108416E+02
 0.19408895370E+02 0.27139033239E+02 0.36264010632E+02 0.46299458195E+02 0.56588402526E+02
 0.66339084470E+02 0.74691277506E+02 0.80820463270E+02 0.84068650445E+02 0.84068661368E+02
 0.80820492765E+02 0.60074435833E+02 0.52241431644E+02 0.43575644511E+02 0.34806421268E+02
 0.26580302294E+02 0.19408877675E+02 0.13632426311E+02 0.93931149944E+01 0.66217384631E+01
 0.50499445674E+01 0.42580024004E+01 0.37806680628E+01 0.34348829617E+01 0.32085589086E+01
 0.30833407290E+01 0.30435850825E+01 0.30833429098E+01 0.32085609161E+01 0.34348815588E+01
 0.37806612684E+01 0.42579910950E+01 0.50499325984E+01 0.66217310093E+01 0.93931158818E+01
 0.13632435566E+02 0.19408890630E+02 0.26580310909E+02 0.34806417295E+02 0.43575623256E+02
 0.52241394638E+02 0.60074391118E+02 0.66339084470E+02 0.70393993722E+02 0.71798135652E+02
 0.70394017559E+02 0.66339124744E+02 0.46304658036E+02 0.39365274933E+02 0.32054252896E+02
 0.24969704995E+02 0.18616431373E+02 0.13360094145E+02 0.93931149944E+01 0.67149240488E+01
 0.51353285334E+01 0.43097546145E+01 0.38187797571E+01 0.34552848394E+01 0.32067302316E+01
 0.30561915038E+01 0.29861780350E+01 0.29861805902E+01 0.30561973710E+01 0.32067349795E+01
 0.34552837893E+01 0.38187705918E+01 0.43097388353E+01 0.51353109801E+01 0.67149105994E+01
 0.93931095407E+01 0.13360096307E+02 0.18616436171E+02 0.24969704812E+02 0.32054240926E+02
 0.39365248642E+02 0.46304620996E+02 0.52241394638E+02 0.56588402526E+02 0.58887827278E+02
 0.58887838284E+02 0.56588432031E+02 0.52241433494E+02 0.34104919753E+02 0.28307433565E+02
 0.22493580229E+02 0.17130494597E+02 0.12580557654E+02 0.90616186244E+01 0.66217384631E+01
 0.51353285334E+01 0.43278626363E+01 0.38382721975E+01 0.34680282204E+01 0.32060129712E+01
 0.30377703008E+01 0.29457589039E+01 0.29167095497E+01 0.29457642500E+01 0.30377778371E+01
 0.32060179038E+01 0.34680264226E+01 0.38382621965E+01 0.43278463083E+01 0.51353101780E+01
 0.66217226746E+01 0.90616079972E+01 0.12580551453E+02 0.17130489048E+02 0.22493570408E+02
 0.28307415967E+02 0.34104894400E+02 0.39365248642E+02 0.43575623256E+02 0.46299458195E+02
 0.47242139256E+02 0.46299473254E+02 0.43575648862E+02 0.39365277612E+02 0.23957158082E+02
 0.19430345796E+02 0.15133198550E+02 0.11399772699E+02 0.84495805282E+01 0.63586181635E+01
 0.50499445674E+01 0.43097546145E+01 0.38382721975E+01 0.34723471054E+01 0.32057586148E+01
 0.30270173666E+01 0.29199996189E+01 0.28705252067E+01 0.28705275039E+01 0.29200054949E+01
 0.30270241845E+01 0.32057631970E+01 0.34723469661E+01 0.38382664253E+01 0.43097439972E+01
 0.50499309848E+01 0.63586035481E+01 0.84495659240E+01 0.11399757902E+02 0.15133182447E+02
 0.19430327307E+02 0.23957137170E+02 0.28307415967E+02 0.32054240926E+02 0.34806417295E+02
 0.36264010632E+02 0.36264015565E+02 0.34806430976E+02 0.32054260447E+02 0.28307437711E+02
 0.16108898234E+02 0.12860989967E+02 0.99739170206E+01 0.76489388102E+01 0.59709830582E+01
 0.48955500713E+01 0.42580024004E+01 0.38187797571E+01 0.34680282204E+01 0.32057586148E+01
 0.30234717725E+01 0.29074527902E+01 0.28442176437E+01 0.28242705499E+01 0.28442200431E+01
 0.29074572600E+01 0.30234776369E+01 0.32057648499E+01 0.34680334980E+01 0.38187825764E+01
 0.42580013037E+01 0.48955439027E+01 0.59709712394E+01 0.76489214880E+01 0.99738951538E+01
 0.12860965202E+02 0.16108872697E+02 0.19430327307E+02 0.22493570408E+02 0.24969704812E+02
 0.26580310909E+02 0.27139033239E+02 0.26580318557E+02 0.24969719417E+02 0.22493590639E+02
 0.19430351300E+02 0.10567288137E+02 0.84820851836E+01 0.67742308105E+01 0.55222321344E+01
 0.46994708025E+01 0.41785482313E+01 0.37806680628E+01 0.34552848394E+01 0.32060129712E+01
 0.30270173666E+01 0.29074527902E+01 0.28356835984E+01 0.28023648911E+01 0.28023650135E+01
 0.28356844442E+01 0.29074555259E+01 0.30270231237E+01 0.32060220360E+01 0.34552960974E+01
 0.37806789963E+01 0.41785555032E+01 0.46994712016E+01 0.55222235945E+01 0.67742130384E+01
 0.84820597882E+01 0.10567258206E+02 0.12860965202E+02 0.15133182447E+02 0.17130489048E+02
 0.18616436171E+02 0.19408890630E+02 0.19408895370E+02 0.18616450034E+02 0.17130510891E+02
 0.15133210208E+02 0.12860995889E+02 0.70941345975E+01 0.59387827291E+01 0.50775792204E+01
 0.44902471874E+01 0.40759780420E+01 0.37259290144E+01 0.34348829617E+01 0.32067302316E+01
 0.30377703008E+01 0.29199996189E+01 0.28442176437E+01 0.28023648911E+01 0.27890434793E+01
 0.28023634802E+01 0.28442161656E+01 0.29200001730E+01 0.30377747937E+01 0.32067394255E+01
 0.34348959093E+01 0.37259430521E+01 0.40759894370E+01 0.44902521031E+01 0.50775748277E+01
 0.59387679939E+01 0.70941105911E+01 0.84820597882E+01 0.99738951538E+01 0.11399757902E+02
 0.12580551453E+02 0.13360096307E+02 0.13632435566E+02 0.13360108416E+02 0.12580573920E+02
 0.11399787448E+02 0.99739274347E+01 0.84820900720E+01 0.52295981932E+01 0.46858206431E+01
 0.42857011925E+01 0.39536463486E+01 0.36579581756E+01 0.34084254590E+01 0.32085589086E+01
 0.30561915038E+01 0.29457589039E+01 0.28705252067E+01 0.28242705499E+01 0.28023650135E+01
 0.28023634802E+01 0.28242665280E+01 0.28705202744E+01 0.29457551875E+01 0.30561910498E+01
 0.32085629950E+01 0.34084340765E+01 0.36579697699E+01 0.39536580363E+01 0.42857093624E+01
 0.46858218686E+01 0.52295902855E+01 0.59387679939E+01 0.67742130384E+01 0.76489214880E+01
 0.84495659240E+01 0.90616079972E+01 0.93931095407E+01 0.93931158818E+01 0.90616256369E+01
 0.84495910798E+01 0.76489489502E+01 0.67742374758E+01 0.59387852330E+01 0.43629440333E+01
 0.40827599604E+01 0.38190151989E+01 0.35815918882E+01 0.33785676846E+01 0.32128863476E+01
 0.30833407290E+01 0.29861780350E+01 0.29167095497E+01 0.28705275039E+01 0.28442200431E+01
 0.28356844442E+01 0.28442161656E+01 0.28705202744E+01 0.29167000916E+01 0.29861680918E+01
 0.30833324914E+01 0.32128819754E+01 0.33785686393E+01 0.35815982577E+01 0.38190253611E+01
 0.40827708442E+01 0.43629519141E+01 0.46858218686E+01 0.50775748277E+01 0.55222235945E+01
 0.59709712394E+01 0.63586035481E+01 0.66217226746E+01 0.67149105994E+01 0.66217310093E+01
 0.63586175972E+01 0.59709866684E+01 0.55222358426E+01 0.50775806035E+01 0.46858201322E+01
 0.38774651557E+01 0.36809079347E+01 0.35027019233E+01 0.33489398155E+01 0.32219721902E+01
 0.31210691639E+01 0.30435850825E+01 0.29861805902E+01 0.29457642500E+01 0.29200054949E+01
 0.29074572600E+01 0.29074555259E+01 0.29200001730E+01 0.29457551875E+01 0.29861680918E+01
 0.30435703752E+01 0.31210545230E+01 0.32219605194E+01 0.33489338032E+01 0.35027030808E+01
 0.36809159246E+01 0.38774777990E+01 0.40827708442E+01 0.42857093624E+01 0.44902521031E+01
 0.46994712016E+01 0.48955439027E+01 0.50499309848E+01 0.51353101780E+01 0.51353109801E+01
 0.50499325984E+01 0.48955443316E+01 0.46994682320E+01 0.44902444422E+01 0.42856974306E+01
 0.40827568761E+01 0.35479806182E+01 0.34273649904E+01 0.33236801039E+01 0.32387418137E+01
 0.31719370265E+01 0.31210686482E+01 0.30833429098E+01 0.30561973710E+01 0.30377778371E+01
 0.30270241845E+01 0.30234776369E+01 0.30270231237E+01 0.30377747937E+01 0.30561910498E+01
 0.30833324914E+01 0.31210545230E+01 0.31719210807E+01 0.32387270746E+01 0.33236698839E+01
 0.34273618612E+01 0.35479855908E+01 0.36809159246E+01 0.38190253611E+01 0.39536580363E+01
 0.40759894370E+01 0.41785555032E+01 0.42580013037E+01 0.43097439972E+01 0.43278463083E+01
 0.43097388353E+01 0.42579910950E+01 0.41785407568E+01 0.40759714166E+01 0.39536389553E+01
 0.38190081701E+01 0.36809036803E+01 0.33608367898E+01 0.33066642529E+01 0.32662100024E+01
 0.32387391115E+01 0.32219682662E+01 0.32128844215E+01 0.32085609161E+01 0.32067349795E+01
 0.32060179038E+01 0.32057631970E+01 0.32057648499E+01 0.32060220360E+01 0.32067394255E+01
 0.32085629950E+01 0.32128819754E+01 0.32219605194E+01 0.32387270746E+01 0.32661962689E+01
 0.33066522687E+01 0.33608298838E+01 0.34273618612E+01 0.35027030808E+01 0.35815982577E+01
 0.36579697699E+01 0.37259430521E+01 0.37806789963E+01 0.38187825764E+01 0.38382664253E+01
 0.38382621965E+01 0.38187705918E+01 0.37806612684E+01 0.37259226092E+01 0.36579501697E+01
 0.35815829310E+01 0.35026946184E+01 0.34273614026E+01 0.33006578940E+01 0.33066628596E+01
 0.33236755212E+01 0.33489326835E+01 0.33785607970E+01 0.34084213779E+01 0.34348815588E+01
 0.34552837893E+01 0.34680264226E+01 0.34723469661E+01 0.34680334980E+01 0.34552960974E+01
 0.34348959093E+01 0.34084340765E+01 0.33785686393E+01 0.33489338032E+01 0.33236698839E+01
 0.33066522687E+01 0.33006454903E+01 0.33066522687E+01 0.33236698839E+01 0.33489338032E+01
 0.33785686393E+01 0.34084340765E+01 0.34348959093E+01 0.34552960974E+01 0.34680334980E+01
 0.34723469661E+01 0.34680264226E+01 0.34552837893E+01 0.34348815588E+01 0.34084213779E+01
 0.33785607970E+01 0.33489326835E+01 0.33236755212E+01 0.33066628596E+01 0.33608367898E+01
 0.34273614026E+01 0.35026946184E+01 0.35815829310E+01 0.36579501697E+01 0.37259226092E+01
 0.37806612684E+01 0.38187705918E+01 0.38382621965E+01 0.38382664253E+01 0.38187825764E+01
 0.37806789963E+01 0.37259430521E+01 0.36579697699E+01 0.35815982577E+01 0.35027030808E+01
 0.34273618612E+01 0.33608298838E+01 0.33066522687E+01 0.32661962689E+01 0.32387270746E+01
 0.32219605194E+01 0.32128819754E+01 0.32085629950E+01 0.32067394255E+01 0.32060220360E+01
 0.32057648499E+01 0.32057631970E+01 0.32060179038E+01 0.32067349795E+01 0.32085609161E+01
 0.32128844215E+01 0.32219682662E+01 0.32387391115E+01 0.32662100024E+01 0.33066642529E+01
 0.35479806182E+01 0.36809036803E+01 0.38190081701E+01 0.39536389553E+01 0.40759714166E+01
 0.41785407568E+01 0.42579910950E+01 0.43097388353E+01 0.43278463083E+01 0.43097439972E+01
 0.42580013037E+01 0.41785555032E+01 0.40759894370E+01 0.39536580363E+01 0.38190253611E+01
 0.36809159246E+01 0.35479855908E+01 0.34273618612E+01 0.33236698839E+01 0.32387270746E+01
 0.31719210807E+01 0.31210545230E+01 0.30833324914E+01 0.30561910498E+01 0.30377747937E+01
 0.30270231237E+01 0.30234776369E+01 0.30270241845E+01 0.30377778371E+01 0.30561973710E+01
 0.30833429098E+01 0.31210686482E+01 0.31719370265E+01 0.32387418137E+01 0.33236801039E+01
 0.34273649904E+01 0.38774651557E+01 0.40827568761E+01 0.42856974306E+01 0.44902444422E+01
 0.46994682320E+01 0.48955443316E+01 0.50499325984E+01 0.51353109801E+01 0.51353101780E+01
 0.50499309848E+01 0.48955439027E+01 0.46994712016E+01 0.44902521031E+01 0.42857093624E+01
 0.40827708442E+01 0.38774777990E+01 0.36809159246E+01 0.35027030808E+01 0.33489338032E+01
 0.32219605194E+01 0.31210545230E+01 0.30435703752E+01 0.29861680918E+01 0.29457551875E+01
 0.29200001730E+01 0.29074555259E+01 0.29074572600E+01 0.29200054949E+01 0.29457642500E+01
 0.29861805902E+01 0.30435850825E+01 0.31210691639E+01 0.32219721902E+01 0.33489398155E+01
 0.35027019233E+01 0.36809079347E+01 0.43629440333E+01 0.46858201322E+01 0.50775806035E+01
 0.55222358426E+01 0.59709866684E+01 0.63586175972E+01 0.66217310093E+01 0.67149105994E+01
 0.66217226746E+01 0.63586035481E+01 0.59709712394E+01 0.55222235945E+01 0.50775748277E+01
 0.46858218686E+01 0.43629519141E+01 0.40827708442E+01 0.38190253611E+01 0.35815982577E+01
 0.33785686393E+01 0.32128819754E+01 0.30833324914E+01 0.29861680918E+01 0.29167000916E+01
 0.28705202744E+01 0.28442161656E+01 0.28356844442E+01 0.28442200431E+01 0.28705275039E+01
 0.29167095497E+01 0.29861780350E+01 0.30833407290E+01 0.32128863476E+01 0.33785676846E+01
 0.35815918882E+01 0.38190151989E+01 0.40827599604E+01 0.52295981932E+01 0.59387852330E+01
 0.67742374758E+01 0.76489489502E+01 0.84495910798E+01 0.90616256369E+01 0.93931158818E+01
 0.93931095407E+01 0.90616079972E+01 0.84495659240E+01 0.76489214880E+01 0.67742130384E+01
 0.59387679939E+01 0.52295902855E+01 0.46858218686E+01 0.42857093624E+01 0.39536580363E+01
 0.36579697699E+01 0.34084340765E+01 0.32085629950E+01 0.30561910498E+01 0.29457551875E+01
 0.28705202744E+01 0.28242665280E+01 0.28023634802E+01 0.28023650135E+01 0.28242705499E+01
 0.28705252067E+01 0.29457589039E+01 0.30561915038E+01 0.32085589086E+01 0.34084254590E+01
 0.36579581756E+01 0.39536463486E+01 0.42857011925E+01 0.46858206431E+01 0.70941345975E+01
 0.84820900720E+01 0.99739274347E+01 0.11399787448E+02 0.12580573920E+02 0.13360108416E+02
 0.13632435566E+02 0.13360096307E+02 0.12580551453E+02 0.11399757902E+02 0.99738951538E+01
 0.84820597882E+01 0.70941105911E+01 0.59387679939E+01 0.50775748277E+01 0.44902521031E+01
 0.40759894370E+01 0.37259430521E+01 0.34348959093E+01 0.32067394255E+01 0.30377747937E+01
 0.29200001730E+01 0.28442161656E+01 0.28023634802E+01 0.27890434793E+01 0.28023648911E+01
 0.28442176437E+01 0.29199996189E+01 0.30377703008E+01 0.32067302316E+01 0.34348829617E+01
 0.37259290144E+01 0.40759780420E+01 0.44902471874E+01 0.50775792204E+01 0.59387827291E+01
 0.10567288137E+02 0.12860995889E+02 0.15133210208E+02 0.17130510891E+02 0.18616450034E+02
 0.19408895370E+02 0.19408890630E+02 0.18616436171E+02 0.17130489048E+02 0.15133182447E+02
 0.12860965202E+02 0.10567258206E+02 0.84820597882E+01 0.67742130384E+01 0.55222235945E+01
 0.46994712016E+01 0.41785555032E+01 0.37806789963E+01 0.34552960974E+01 0.32060220360E+01
 0.30270231237E+01 0.29074555259E+01 0.28356844442E+01 0.28023650135E+01 0.28023648911E+01
 0.28356835984E+01 0.29074527902E+01 0.30270173666E+01 0.32060129712E+01 0.34552848394E+01
 0.37806680628E+01 0.41785482313E+01 0.46994708025E+01 0.55222321344E+01 0.67742308105E+01
 0.84820851836E+01 0.16108898234E+02 0.19430351300E+02 0.22493590639E+02 0.24969719417E+02
 0.26580318557E+02 0.27139033239E+02 0.26580310909E+02 0.24969704812E+02 0.22493570408E+02
 0.19430327307E+02 0.16108872697E+02 0.12860965202E+02 0.99738951538E+01 0.76489214880E+01
 0.59709712394E+01 0.48955439027E+01 0.42580013037E+01 0.38187825764E+01 0.34680334980E+01
 0.32057648499E+01 0.30234776369E+01 0.29074572600E+01 0.28442200431E+01 0.28242705499E+01
 0.28442176437E+01 0.29074527902E+01 0.30234717725E+01 0.32057586148E+01 0.34680282204E+01
 0.38187797571E+01 0.42580024004E+01 0.48955500713E+01 0.59709830582E+01 0.76489388102E+01
 0.99739170206E+01 0.12860989967E+02 0.23957158082E+02 0.28307437711E+02 0.32054260447E+02
 0.34806430976E+02 0.36264015565E+02 0.36264010632E+02 0.34806417295E+02 0.32054240926E+02
 0.28307415967E+02 0.23957137170E+02 0.19430327307E+02 0.15133182447E+02 0.11399757902E+02
 0.84495659240E+01 0.63586035481E+01 0.50499309848E+01 0.43097439972E+01 0.38382664253E+01
 0.34723469661E+01 0.32057631970E+01 0.30270241845E+01 0.29200054949E+01 0.28705275039E+01
 0.28705252067E+01 0.29199996189E+01 0.30270173666E+01 0.32057586148E+01 0.34723471054E+01
 0.38382721975E+01 0.43097546145E+01 0.50499445674E+01 0.63586181635E+01 0.84495805282E+01
 0.11399772699E+02 0.15133198550E+02 0.19430345796E+02 0.34104919753E+02 0.39365277612E+02
 0.43575648862E+02 0.46299473254E+02 0.47242139256E+02 0.46299458195E+02 0.43575623256E+02
 0.39365248642E+02 0.34104894400E+02 0.28307415967E+02 0.22493570408E+02 0.17130489048E+02
 0.12580551453E+02 0.90616079972E+01 0.66217226746E+01 0.51353101780E+01 0.43278463083E+01
 0.38382621965E+01 0.34680264226E+01 0.32060179038E+01 0.30377778371E+01 0.29457642500E+01
 0.29167095497E+01 0.29457589039E+01 0.30377703008E+01 0.32060129712E+01 0.34680282204E+01
 0.38382721975E+01 0.43278626363E+01 0.51353285334E+01 0.66217384631E+01 0.90616186244E+01
 0.12580557654E+02 0.17130494597E+02 0.22493580229E+02 0.28307433565E+02 0.46304658036E+02
 0.52241433494E+02 0.56588432031E+02 0.58887838284E+02 0.58887827278E+02 0.56588402526E+02
 0.52241394638E+02 0.46304620996E+02 0.39365248642E+02 0.32054240926E+02 0.24969704812E+02
 0.18616436171E+02 0.13360096307E+02 0.93931095407E+01 0.67149105994E+01 0.51353109801E+01
 0.43097388353E+01 0.38187705918E+01 0.34552837893E+01 0.32067349795E+01 0.30561973710E+01
 0.29861805902E+01 0.29861780350E+01 0.30561915038E+01 0.32067302316E+01 0.34552848394E+01
 0.38187797571E+01 0.43097546145E+01 0.51353285334E+01 0.67149240488E+01 0.93931149944E+01
 0.13360094145E+02 0.18616431373E+02 0.24969704995E+02 0.32054252896E+02 0.39365274933E+02
 0.60074435833E+02 0.66339124744E+02 0.70394017559E+02 0.71798135652E+02 0.70393993722E+02
 0.66339084470E+02 0.60074391118E+02 0.52241394638E+02 0.43575623256E+02 0.34806417295E+02
 0.26580310909E+02 0.19408890630E+02 0.13632435566E+02 0.93931158818E+01 0.66217310093E+01
 0.50499325984E+01 0.42579910950E+01 0.37806612684E+01 0.34348815588E+01 0.32085609161E+01
 0.30833429098E+01 0.30435850825E+01 0.30833407290E+01 0.32085589086E+01 0.34348829617E+01
 0.37806680628E+01 0.42580024004E+01 0.50499445674E+01 0.66217384631E+01 0.93931149944E+01
 0.13632426311E+02 0.19408877675E+02 0.26580302294E+02 0.34806421268E+02 0.43575644511E+02
 0.52241431644E+02 0.74691316913E+02 0.80820492765E+02 0.84068661368E+02 0.84068650445E+02
 0.80820463270E+02 0.74691277506E+02 0.66339084470E+02 0.56588402526E+02 0.46299458195E+02
 0.36264010632E+02 0.27139033239E+02 0.19408895370E+02 0.13360108416E+02 0.90616256369E+01
 0.63586175972E+01 0.48955443316E+01 0.41785407568E+01 0.37259226092E+01 0.34084213779E+01
 0.32128844215E+01 0.31210686482E+01 0.31210691639E+01 0.32128863476E+01 0.34084254590E+01
 0.37259290144E+01 0.41785482313E+01 0.48955500713E+01 0.63586181635E+01 0.90616186244E+01
 0.13360094145E+02 0.19408877675E+02 0.27139018771E+02 0.36264006694E+02 0.46299469839E+02
 0.56588430116E+02 0.66339122778E+02 0.89188058190E+02 0.94620436780E+02 0.96504797436E+02
 0.94620423208E+02 0.89188034845E+02 0.80820463270E+02 0.70393993722E+02 0.58887827278E+02
 0.47242139256E+02 0.36264015565E+02 0.26580318557E+02 0.18616450034E+02 0.12580573920E+02
 0.84495910798E+01 0.59709866684E+01 0.46994682320E+01 0.40759714166E+01 0.36579501697E+01
 0.33785607970E+01 0.32219682662E+01 0.31719370265E+01 0.32219721902E+01 0.33785676846E+01
 0.36579581756E+01 0.40759780420E+01 0.46994708025E+01 0.59709830582E+01 0.84495805282E+01
 0.12580557654E+02 0.18616431373E+02 0.26580302294E+02 0.36264006694E+02 0.47242141366E+02
 0.58887841178E+02 0.70394016809E+02 0.80820489991E+02 0.10239201965E+03 0.10652094949E+03
 0.10652094691E+03 0.10239201252E+03 0.94620423208E+02 0.84068650445E+02 0.71798135652E+02
 0.58887838284E+02 0.46299473254E+02 0.34806430976E+02 0.24969719417E+02 0.17130510891E+02
 0.11399787448E+02 0.76489489502E+01 0.55222358426E+01 0.44902444422E+01 0.39536389553E+01
 0.35815829310E+01 0.33489326835E+01 0.32387391115E+01 0.32387418137E+01 0.33489398155E+01
 0.35815918882E+01 0.39536463486E+01 0.44902471874E+01 0.55222321344E+01 0.76489388102E+01
 0.11399772699E+02 0.17130494597E+02 0.24969704995E+02 0.34806421268E+02 0.46299469839E+02
 0.58887841178E+02 0.71798143428E+02 0.84068660691E+02 0.94620433147E+02 0.11304167720E+03
 0.11530695271E+03 0.11304167805E+03 0.10652094691E+03 0.96504797436E+02 0.84068661368E+02
 0.70394017559E+02 0.56588432031E+02 0.43575648862E+02 0.32054260447E+02 0.22493590639E+02
 0.15133210208E+02 0.99739274347E+01 0.67742374758E+01 0.50775806035E+01 0.42856974306E+01
 0.38190081701E+01 0.35026946184E+01 0.33236755212E+01 0.32662100024E+01 0.33236801039E+01
 0.35027019233E+01 0.38190151989E+01 0.42857011925E+01 0.50775792204E+01 0.67742308105E+01
 0.99739170206E+01 0.15133198550E+02 0.22493580229E+02 0.32054252896E+02 0.43575644511E+02
 0.56588430116E+02 0.70394016809E+02 0.84068660691E+02 0.96504796368E+02 0.10652094567E+03
 0.11998219460E+03 0.11998219571E+03 0.11530695271E+03 0.10652094949E+03 0.94620436780E+02
 0.80820492765E+02 0.66339124744E+02 0.52241433494E+02 0.39365277612E+02 0.28307437711E+02
 0.19430351300E+02 0.12860995889E+02 0.84820900720E+01 0.59387852330E+01 0.46858201322E+01
 0.40827568761E+01 0.36809036803E+01 0.34273614026E+01 0.33066628596E+01 0.33066642529E+01
 0.34273649904E+01 0.36809079347E+01 0.40827599604E+01 0.46858206431E+01 0.59387827291E+01
 0.84820851836E+01 0.12860989967E+02 0.19430345796E+02 0.28307433565E+02 0.39365274933E+02
 0.52241431644E+02 0.66339122778E+02 0.80820489991E+02 0.94620433147E+02 0.10652094567E+03
 0.11530694977E+03 0.11998219460E+03 0.11530694977E+03 0.10652094567E+03 0.94620433147E+02
 0.80820489991E+02 0.66339122778E+02 0.52241431644E+02 0.39365274933E+02 0.28307433565E+02
 0.19430345796E+02 0.12860989967E+02 0.84820851836E+01 0.59387827291E+01 0.46858206431E+01
 0.40827599604E+01 0.36809079347E+01 0.34273649904E+01 0.33066642529E+01 0.33066628596E+01
 0.34273614026E+01 0.36809036803E+01 0.40827568761E+01 0.46858201322E+01 0.59387852330E+01
 0.84820900720E+01 0.12860995889E+02 0.19430351300E+02 0.28307437711E+02 0.39365277612E+02
 0.52241433494E+02 0.66339124744E+02 0.80820492765E+02 0.94620436780E+02 0.10652094949E+03
 0.11530695271E+03 0.11998219571E+03 0.11530694977E+03 0.10866355315E+03 0.98459785698E+02
 0.85791537396E+02 0.71861491404E+02 0.57795540840E+02 0.44531400798E+02 0.32777782604E+02
 0.23011655848E+02 0.15478735372E+02 0.10184366024E+02 0.68890095687E+01 0.51345085189E+01
 0.43172257588E+01 0.38436274050E+01 0.35224135608E+01 0.33404182401E+01 0.32819625618E+01
 0.33404134604E+01 0.35224060724E+01 0.38436204717E+01 0.43172224678E+01 0.51345105179E+01
 0.68890164564E+01 0.10184375628E+02 0.15478744767E+02 0.23011662621E+02 0.32777785817E+02
 0.44531401200E+02 0.57795540323E+02 0.71861491942E+02 0.85791540051E+02 0.98459790116E+02
 0.10866355779E+03 0.11530695273E+03 0.11761495261E+03 0.10652094567E+03 0.98459785698E+02
 0.87515849686E+02 0.74788964435E+02 0.61394500689E+02 0.48324099044E+02 0.36373920638E+02
 0.26122426889E+02 0.17924945265E+02 0.11903722096E+02 0.79370794711E+01 0.56697054331E+01
 0.45650241920E+01 0.40066910332E+01 0.36235703699E+01 0.33833498118E+01 0.32693919419E+01
 0.32693888937E+01 0.33833419886E+01 0.36235611788E+01 0.40066845406E+01 0.45650234378E+01
 0.56697112039E+01 0.79370900345E+01 0.11903733975E+02 0.17924954680E+02 0.26122431225E+02
 0.36373919327E+02 0.48324093516E+02 0.61394493528E+02 0.74788958159E+02 0.87515845742E+02
 0.98459784134E+02 0.10652094552E+03 0.11080414138E+03 0.11080414126E+03 0.94620433147E+02
 0.85791537396E+02 0.74788964435E+02 0.62641341738E+02 0.50333150284E+02 0.38707591554E+02
 0.28420377461E+02 0.19920791392E+02 0.13436840087E+02 0.89596793876E+01 0.62424036336E+01
 0.48343124699E+01 0.41599168864E+01 0.37241314922E+01 0.34314921478E+01 0.32669932945E+01
 0.32143582516E+01 0.32669882707E+01 0.34314842310E+01 0.37241240971E+01 0.41599133558E+01
 0.48343147512E+01 0.62424114942E+01 0.89596904617E+01 0.13436850697E+02 0.19920797808E+02
 0.28420377087E+02 0.38707583663E+02 0.50333136055E+02 0.62641323733E+02 0.74788945761E+02
 0.85791520932E+02 0.94620421071E+02 0.10035252029E+03 0.10234095753E+03 0.10035252663E+03
 0.80820489991E+02 0.71861491404E+02 0.61394500689E+02 0.50333150284E+02 0.39516420938E+02
 0.29641352338E+02 0.21226719387E+02 0.14588662862E+02 0.98193613439E+01 0.67770689067E+01
 0.51056138622E+01 0.42958295979E+01 0.38169878669E+01 0.34800911524E+01 0.32716786052E+01
 0.31735653333E+01 0.31735639796E+01 0.32716750398E+01 0.34800867165E+01 0.38169843395E+01
 0.42958286216E+01 0.51056163449E+01 0.67770745649E+01 0.98193685408E+01 0.14588668829E+02
 0.21226720841E+02 0.29641346345E+02 0.39516405843E+02 0.50333126404E+02 0.61394470563E+02
 0.71861459457E+02 0.80820461648E+02 0.87392907589E+02 0.90875674753E+02 0.90875681714E+02
 0.87392927112E+02 0.66339122778E+02 0.57795540840E+02 0.48324099044E+02 0.38707591554E+02
 0.29641352338E+02 0.21681055642E+02 0.15206439848E+02 0.10392479658E+02 0.71918026118E+01
 0.53422867476E+01 0.44126430943E+01 0.38956912236E+01 0.35244817304E+01 0.32800514228E+01
 0.31443117503E+01 0.31011367521E+01 0.31443124692E+01 0.32800522340E+01 0.35244818025E+01
 0.38956901071E+01 0.44126410905E+01 0.53422847798E+01 0.71918015796E+01 0.10392479570E+02
 0.15206439199E+02 0.21681051472E+02 0.29641341117E+02 0.38707570666E+02 0.48324068282E+02
 0.57795503260E+02 0.66339084413E+02 0.73164101182E+02 0.77579076350E+02 0.79107537057E+02
 0.77579094199E+02 0.73164132754E+02 0.52241431644E+02 0.44531400798E+02 0.36373920638E+02
 0.28420377461E+02 0.21226719387E+02 0.15206439848E+02 0.10593661464E+02 0.74184188856E+01
 0.55045090730E+01 0.45013817669E+01 0.39551956031E+01 0.35607936630E+01 0.32891296846E+01
 0.31238345157E+01 0.30467573329E+01 0.30467591723E+01 0.31238390227E+01 0.32891343238E+01
 0.35607956200E+01 0.39551931475E+01 0.45013750347E+01 0.55044998584E+01 0.74184095205E+01
 0.10593653352E+02 0.15206432402E+02 0.21226709998E+02 0.28420362613E+02 0.36373897742E+02
 0.44531369945E+02 0.52241396397E+02 0.58819269911E+02 0.63627684667E+02 0.66168966113E+02
 0.66168974804E+02 0.63627708534E+02 0.58819303143E+02 0.39365274933E+02 0.32777782604E+02
 0.26122426889E+02 0.19920791392E+02 0.14588662862E+02 0.10392479658E+02 0.74184188856E+01
 0.55622786494E+01 0.45498388575E+01 0.39921202743E+01 0.35863014038E+01 0.32967689678E+01
 0.31099291942E+01 0.30074543124E+01 0.29750581251E+01 0.30074585881E+01 0.31099355471E+01
 0.32967739662E+01 0.35863018612E+01 0.39921145721E+01 0.45498274983E+01 0.55622638281E+01
 0.74184032872E+01 0.10392465112E+02 0.14588649487E+02 0.19920777680E+02 0.26122410699E+02
 0.32777762578E+02 0.39365251670E+02 0.45311071664E+02 0.50053398309E+02 0.53114861046E+02
 0.54173337458E+02 0.53114872203E+02 0.50053417898E+02 0.45311095290E+02 0.28307433565E+02
 0.23011655848E+02 0.17924945265E+02 0.13436840087E+02 0.98193613439E+01 0.71918026118E+01
 0.55045090730E+01 0.45498388575E+01 0.40046196304E+01 0.35994054672E+01 0.33017205052E+01
 0.31011968239E+01 0.29808620771E+01 0.29251787788E+01 0.29251804241E+01 0.29808662843E+01
 0.31012016574E+01 0.33017234971E+01 0.35994044361E+01 0.40046133585E+01 0.45498273658E+01
 0.55044934680E+01 0.71917845768E+01 0.98193425595E+01 0.13436821789E+02 0.17924928108E+02
 0.23011640083E+02 0.28307419358E+02 0.33352191403E+02 0.37670002812E+02 0.40828401363E+02
 0.42497176784E+02 0.42497178965E+02 0.40828407641E+02 0.37670012505E+02 0.33352203684E+02
 0.19430345796E+02 0.15478735372E+02 0.11903722096E+02 0.89596793876E+01 0.67770689067E+01
 0.53422867476E+01 0.45013817669E+01 0.39921202743E+01 0.35994054672E+01 0.33034204603E+01