   1   1   1   0
  0.1285983E+02  0.2629764E-09  0.2629764E-09  0.2629764E-09  0.5000000E-15
  1.000000000000000E-004
  CAR 
 Co-fcc                                  
     49.70306780     -2.13794441  301      8.16864244      1.00000000
     -2.138  0.0000E+00  0.0000E+00  0.0000E+00  0.0000E+00
     -1.965  0.0000E+00  0.0000E+00  0.0000E+00  0.0000E+00
     -1.792  0.0000E+00  0.0000E+00  0.0000E+00  0.0000E+00
     -1.620  0.0000E+00  0.0000E+00  0.0000E+00  0.0000E+00
     -1.447  0.0000E+00  0.0000E+00  0.0000E+00  0.0000E+00
     -1.274  0.0000E+00  0.0000E+00  0.0000E+00  0.0000E+00
     -1.101  0.0000E+00  0.0000E+00  0.0000E+00  0.0000E+00
     -0.928  0.0000E+00  0.0000E+00  0.0000E+00  0.0000E+00
     -0.756  0.0000E+00  0.0000E+00  0.0000E+00  0.0000E+00
     -0.583  0.0000E+00  0.0000E+00  0.0000E+00  0.0000E+00
     -0.410  0.0000E+00  0.0000E+00  0.0000E+00  0.0000E+00
     -0.237  0.0000E+00  0.0000E+00  0.0000E+00  0.0000E+00
     -0.064  0.1255E-19  0.1380E-18  0.2168E-20  0.2385E-19
      0.108  0.7492E-07  0.2112E-06  0.1295E-07  0.3650E-07
      0.281  0.2104E-03  0.2173E-03  0.3637E-04  0.3759E-04
      0.454  0.1565E-04  0.8669E-05  0.3907E-04  0.3909E-04
      0.627  0.5867E-03  0.6172E-03  0.1405E-03  0.1457E-03
      0.800  0.9144E-04  0.6086E-04  0.1563E-03  0.1563E-03
      0.973  0.5727E-03  0.5913E-03  0.2552E-03  0.2584E-03
      1.145  0.1055E-03  0.8692E-04  0.2735E-03  0.2735E-03
      1.318  0.7987E-03  0.7851E-03  0.4115E-03  0.4091E-03
      1.491  0.1064E-03  0.1193E-03  0.4298E-03  0.4297E-03
      1.664  0.1293E-02  0.1237E-02  0.6533E-03  0.6435E-03
      1.837  0.8132E-04  0.1208E-03  0.6674E-03  0.6643E-03
      2.009  0.6580E-03  0.6635E-03  0.7811E-03  0.7790E-03
      2.182  0.2268E-03  0.2783E-04  0.8203E-03  0.7838E-03
      2.355  0.1132E-02  0.1335E-02  0.1016E-02  0.1015E-02
      2.528  0.1703E-02  0.3355E-03  0.1310E-02  0.1072E-02
      2.701  0.4188E-03  0.1705E-02  0.1382E-02  0.1367E-02
      2.873  0.7190E-03  0.4660E-03  0.1507E-02  0.1448E-02
      3.046  0.1041E-02  0.2509E-03  0.1687E-02  0.1491E-02
      3.219  0.2403E-02  0.1484E-02  0.2102E-02  0.1748E-02
      3.392  0.1418E-02  0.1177E-02  0.2347E-02  0.1951E-02
      3.565  0.1804E-02  0.9185E-03  0.2659E-02  0.2110E-02
      3.737  0.4839E-02  0.1402E-02  0.3495E-02  0.2352E-02
      3.910  0.8822E-02  0.1147E-02  0.5019E-02  0.2550E-02
      4.083  0.5249E-02  0.1336E-02  0.5926E-02  0.2781E-02
      4.256  0.1101E-01  0.2021E-02  0.7829E-02  0.3130E-02
      4.429  0.1008E-01  0.2248E-02  0.9570E-02  0.3519E-02
      4.601  0.1251E-01  0.1366E-02  0.1173E-01  0.3755E-02
      4.774  0.1012E-01  0.4380E-02  0.1348E-01  0.4512E-02
      4.947  0.1195E-01  0.3264E-02  0.1555E-01  0.5076E-02
      5.120  0.9762E-02  0.4807E-02  0.1723E-01  0.5906E-02
      5.293  0.1253E-01  0.4712E-02  0.1940E-01  0.6721E-02
      5.465  0.1663E-01  0.4524E-02  0.2227E-01  0.7502E-02
      5.638  0.1880E-01  0.6775E-02  0.2552E-01  0.8673E-02
      5.811  0.2151E-01  0.8466E-02  0.2924E-01  0.1014E-01
      5.984  0.1634E-01  0.1008E-01  0.3206E-01  0.1188E-01
      6.157  0.1397E-01  0.7357E-02  0.3447E-01  0.1315E-01
      6.329  0.1892E-01  0.9510E-02  0.3774E-01  0.1479E-01
      6.502  0.1295E-01  0.7788E-02  0.3998E-01  0.1614E-01
      6.675  0.1680E-01  0.1255E-01  0.4289E-01  0.1831E-01
      6.848  0.1365E-01  0.1138E-01  0.4524E-01  0.2027E-01
      7.021  0.1704E-01  0.1137E-01  0.4819E-01  0.2224E-01
      7.193  0.1941E-01  0.1314E-01  0.5154E-01  0.2451E-01
      7.366  0.6045E-02  0.1350E-01  0.5259E-01  0.2684E-01
      7.539  0.1507E-02  0.1496E-01  0.5285E-01  0.2943E-01
      7.712  0.6236E-03  0.1277E-01  0.5296E-01  0.3163E-01
      7.885  0.3114E-02  0.9435E-02  0.5350E-01  0.3326E-01
      8.057  0.1068E-02  0.8554E-02  0.5368E-01  0.3474E-01
      8.230  0.1311E-02  0.1407E-01  0.5391E-01  0.3717E-01
      8.403  0.2120E-03  0.1247E-01  0.5394E-01  0.3933E-01
      8.576  0.2649E-02  0.1484E-01  0.5440E-01  0.4189E-01
      8.749  0.2564E-02  0.9775E-02  0.5484E-01  0.4358E-01
      8.921  0.8525E-03  0.1713E-01  0.5499E-01  0.4654E-01
      9.094  0.1201E-02  0.2368E-01  0.5520E-01  0.5063E-01
      9.267  0.1365E-02  0.1273E-01  0.5543E-01  0.5283E-01
      9.440  0.6496E-03  0.7872E-03  0.5555E-01  0.5297E-01
      9.613  0.1627E-02  0.5822E-02  0.5583E-01  0.5398E-01
      9.785  0.1741E-02  0.1796E-02  0.5613E-01  0.5429E-01
      9.958  0.1261E-02  0.1203E-02  0.5635E-01  0.5449E-01
     10.131  0.3204E-02  0.1601E-02  0.5690E-01  0.5477E-01
     10.304  0.3346E-03  0.2457E-02  0.5696E-01  0.5519E-01
     10.477  0.6483E-03  0.2269E-02  0.5707E-01  0.5559E-01
     10.650  0.1237E-02  0.2226E-02  0.5728E-01  0.5597E-01
     10.822  0.1193E-03  0.1178E-02  0.5730E-01  0.5618E-01
     10.995  0.1466E-02  0.1809E-02  0.5756E-01  0.5649E-01
     11.168  0.2349E-02  0.3276E-02  0.5796E-01  0.5705E-01
     11.341  0.1649E-02  0.9575E-04  0.5825E-01  0.5707E-01
     11.514  0.6385E-03  0.8240E-03  0.5836E-01  0.5721E-01
     11.686  0.2570E-04  0.1814E-02  0.5836E-01  0.5753E-01
     11.859  0.2776E-02  0.2173E-02  0.5884E-01  0.5790E-01
     12.032  0.5898E-03  0.6371E-03  0.5895E-01  0.5801E-01
     12.205  0.4183E-07  0.1896E-02  0.5895E-01  0.5834E-01
     12.378  0.1099E-02  0.5949E-03  0.5914E-01  0.5844E-01
     12.550  0.2569E-03  0.6738E-03  0.5918E-01  0.5856E-01
     12.723  0.6105E-03  0.2238E-02  0.5929E-01  0.5895E-01
     12.896  0.1290E-02  0.5987E-03  0.5951E-01  0.5905E-01
     13.069  0.1875E-02  0.7581E-03  0.5983E-01  0.5918E-01
     13.242  0.1474E-02  0.2636E-06  0.6009E-01  0.5918E-01
     13.414  0.8537E-03  0.9899E-03  0.6023E-01  0.5935E-01
     13.587  0.1196E-02  0.1045E-02  0.6044E-01  0.5953E-01
     13.760  0.2007E-02  0.1268E-02  0.6079E-01  0.5975E-01
     13.933  0.1672E-02  0.9023E-04  0.6108E-01  0.5977E-01
     14.106  0.2131E-02  0.1170E-02  0.6145E-01  0.5997E-01
     14.278  0.1196E-03  0.2189E-02  0.6147E-01  0.6035E-01
     14.451  0.2587E-02  0.2482E-02  0.6191E-01  0.6078E-01
     14.624  0.1228E-02  0.1439E-02  0.6213E-01  0.6102E-01
     14.797  0.1193E-02  0.1853E-02  0.6233E-01  0.6134E-01
     14.970  0.2988E-03  0.1876E-02  0.6238E-01  0.6167E-01
     15.142  0.1044E-02  0.1292E-02  0.6256E-01  0.6189E-01
     15.315  0.3354E-02  0.2224E-02  0.6314E-01  0.6228E-01
     15.488  0.1028E-02  0.6186E-03  0.6332E-01  0.6238E-01
     15.661  0.1282E-02  0.2938E-04  0.6354E-01  0.6239E-01
     15.834  0.1416E-02  0.3615E-02  0.6379E-01  0.6301E-01
     16.006  0.5992E-04  0.1351E-02  0.6380E-01  0.6325E-01
     16.179  0.1310E-02  0.4752E-03  0.6402E-01  0.6333E-01
     16.352  0.6627E-03  0.2651E-02  0.6414E-01  0.6379E-01
     16.525  0.1517E-02  0.1940E-04  0.6440E-01  0.6379E-01
     16.698  0.3329E-02  0.1325E-02  0.6498E-01  0.6402E-01
     16.870  0.1322E-02  0.5100E-03  0.6520E-01  0.6411E-01
     17.043  0.1257E-02  0.9767E-03  0.6542E-01  0.6428E-01
     17.216  0.3542E-02  0.1468E-02  0.6603E-01  0.6453E-01
     17.389  0.2151E-02  0.3230E-02  0.6640E-01  0.6509E-01
     17.562  0.1503E-02  0.1941E-02  0.6666E-01  0.6542E-01
     17.734  0.2196E-02  0.2266E-02  0.6704E-01  0.6581E-01
     17.907  0.1715E-02  0.3502E-02  0.6734E-01  0.6642E-01
     18.080  0.4746E-03  0.5729E-03  0.6742E-01  0.6652E-01
     18.253  0.1418E-02  0.2690E-02  0.6767E-01  0.6698E-01
     18.426  0.9261E-03  0.1962E-02  0.6783E-01  0.6732E-01
     18.598  0.2787E-02  0.7945E-03  0.6831E-01  0.6746E-01
     18.771  0.2616E-02  0.1262E-02  0.6876E-01  0.6768E-01
     18.944  0.2661E-02  0.1151E-02  0.6922E-01  0.6788E-01
     19.117  0.1375E-02  0.4303E-02  0.6946E-01  0.6862E-01
     19.290  0.2833E-02  0.2169E-02  0.6995E-01  0.6899E-01
     19.462  0.3032E-02  0.1660E-02  0.7047E-01  0.6928E-01
     19.635  0.1172E-02  0.1578E-02  0.7067E-01  0.6955E-01
     19.808  0.2383E-02  0.3712E-02  0.7109E-01  0.7020E-01
     19.981  0.5789E-03  0.2476E-02  0.7119E-01  0.7062E-01
     20.154  0.1657E-02  0.2253E-02  0.7147E-01  0.7101E-01
     20.326  0.3247E-02  0.8098E-03  0.7203E-01  0.7115E-01
     20.499  0.3628E-02  0.1195E-02  0.7266E-01  0.7136E-01
     20.672  0.1025E-02  0.3412E-02  0.7284E-01  0.7195E-01
     20.845  0.1842E-02  0.3460E-02  0.7316E-01  0.7255E-01
     21.018  0.1680E-02  0.1123E-02  0.7345E-01  0.7274E-01
     21.191  0.3368E-02  0.2532E-02  0.7403E-01  0.7318E-01
     21.363  0.1330E-02  0.2226E-02  0.7426E-01  0.7356E-01
     21.536  0.1674E-02  0.2413E-02  0.7455E-01  0.7398E-01
     21.709  0.2818E-02  0.1923E-02  0.7503E-01  0.7431E-01
     21.882  0.2029E-02  0.1952E-02  0.7538E-01  0.7465E-01
     22.055  0.2857E-02  0.2191E-02  0.7588E-01  0.7503E-01
     22.227  0.2793E-02  0.2204E-02  0.7636E-01  0.7541E-01
     22.400  0.2033E-02  0.3330E-02  0.7671E-01  0.7598E-01
     22.573  0.3819E-02  0.2147E-02  0.7737E-01  0.7636E-01
     22.746  0.2932E-02  0.2183E-02  0.7788E-01  0.7673E-01
     22.919  0.7475E-03  0.4059E-02  0.7801E-01  0.7743E-01
     23.091  0.6027E-03  0.3154E-02  0.7811E-01  0.7798E-01
     23.264  0.4458E-02  0.1721E-03  0.7888E-01  0.7801E-01
     23.437  0.1765E-02  0.2695E-02  0.7919E-01  0.7847E-01
     23.610  0.2445E-02  0.2806E-02  0.7961E-01  0.7896E-01
     23.783  0.1581E-02  0.1929E-02  0.7988E-01  0.7929E-01
     23.955  0.2701E-03  0.2089E-02  0.7993E-01  0.7965E-01
     24.128  0.2469E-02  0.1351E-02  0.8036E-01  0.7989E-01
     24.301  0.1517E-02  0.1615E-02  0.8062E-01  0.8017E-01
     24.474  0.1778E-02  0.1814E-02  0.8093E-01  0.8048E-01
     24.647  0.3868E-02  0.1696E-02  0.8159E-01  0.8077E-01
     24.819  0.8951E-03  0.2324E-02  0.8175E-01  0.8117E-01
     24.992  0.3180E-02  0.2863E-02  0.8230E-01  0.8167E-01
     25.165  0.4891E-03  0.2060E-02  0.8238E-01  0.8203E-01
     25.338  0.1565E-02  0.2064E-02  0.8265E-01  0.8238E-01
     25.511  0.2501E-02  0.9616E-04  0.8309E-01  0.8240E-01
     25.683  0.6137E-05  0.3044E-02  0.8309E-01  0.8292E-01
     25.856  0.1359E-02  0.9346E-03  0.8332E-01  0.8309E-01
     26.029  0.4021E-02  0.3222E-03  0.8402E-01  0.8314E-01
     26.202  0.1743E-02  0.4930E-02  0.8432E-01  0.8399E-01
     26.375  0.1849E-02  0.9674E-03  0.8464E-01  0.8416E-01
     26.547  0.9445E-03  0.1921E-02  0.8480E-01  0.8449E-01
     26.720  0.2519E-02  0.9960E-03  0.8524E-01  0.8466E-01
     26.893  0.1104E-02  0.2317E-02  0.8543E-01  0.8507E-01
     27.066  0.2144E-02  0.1460E-02  0.8580E-01  0.8532E-01
     27.239  0.2600E-02  0.2578E-02  0.8625E-01  0.8576E-01
     27.411  0.1398E-02  0.1299E-02  0.8649E-01  0.8599E-01
     27.584  0.3604E-02  0.3744E-02  0.8711E-01  0.8663E-01
     27.757  0.1614E-02  0.2649E-02  0.8739E-01  0.8709E-01
     27.930  0.3468E-02  0.2995E-02  0.8799E-01  0.8761E-01
     28.103  0.1893E-02  0.1691E-02  0.8831E-01  0.8790E-01
     28.275  0.1459E-02  0.2319E-02  0.8857E-01  0.8830E-01
     28.448  0.2226E-02  0.1779E-02  0.8895E-01  0.8861E-01
     28.621  0.2803E-02  0.1660E-02  0.8944E-01  0.8890E-01
     28.794  0.5524E-02  0.5530E-02  0.9039E-01  0.8985E-01
     28.967  0.2049E-02  0.3985E-02  0.9074E-01  0.9054E-01
     29.139  0.1523E-02  0.2293E-02  0.9101E-01  0.9094E-01
     29.312  0.5967E-02  0.1058E-02  0.9204E-01  0.9112E-01
     29.485  0.2350E-02  0.4682E-02  0.9244E-01  0.9193E-01
     29.658  0.9415E-03  0.2516E-02  0.9261E-01  0.9236E-01
     29.831  0.3478E-02  0.2027E-02  0.9321E-01  0.9271E-01
     30.003  0.3772E-02  0.4445E-02  0.9386E-01  0.9348E-01
     30.176  0.2597E-02  0.3106E-02  0.9431E-01  0.9402E-01
     30.349  0.2594E-02  0.1458E-02  0.9476E-01  0.9427E-01
     30.522  0.3428E-02  0.2346E-02  0.9535E-01  0.9468E-01
     30.695  0.3208E-02  0.2132E-02  0.9590E-01  0.9504E-01
     30.868  0.2181E-02  0.4090E-02  0.9628E-01  0.9575E-01
     31.040  0.2144E-02  0.4651E-02  0.9665E-01  0.9656E-01
     31.213  0.2699E-02  0.8419E-03  0.9712E-01  0.9670E-01
     31.386  0.4640E-02  0.2562E-02  0.9792E-01  0.9714E-01
     31.559  0.3996E-02  0.3258E-02  0.9861E-01  0.9771E-01
     31.732  0.2594E-03  0.4019E-02  0.9866E-01  0.9840E-01
     31.904  0.2241E-02  0.2797E-02  0.9904E-01  0.9888E-01
     32.077  0.1698E-02  0.1094E-02  0.9934E-01  0.9907E-01
     32.250  0.6759E-03  0.4640E-03  0.9945E-01  0.9915E-01
     32.423  0.5927E-04  0.1057E-02  0.9946E-01  0.9934E-01
     32.596  0.4221E-02  0.1992E-02  0.1002E+00  0.9968E-01
     32.768  0.2954E-02  0.3687E-02  0.1007E+00  0.1003E+00
     32.941  0.4220E-05  0.2323E-03  0.1007E+00  0.1004E+00
     33.114  0.5035E-03  0.1964E-02  0.1008E+00  0.1007E+00
     33.287  0.1189E-02  0.2816E-03  0.1010E+00  0.1007E+00
     33.460  0.3289E-02  0.1203E-02  0.1016E+00  0.1010E+00
     33.632  0.2869E-03  0.3388E-02  0.1016E+00  0.1015E+00
     33.805  0.2424E-02  0.3877E-03  0.1020E+00  0.1016E+00
     33.978  0.2096E-02  0.1582E-02  0.1024E+00  0.1019E+00
     34.151  0.3828E-02  0.1295E-02  0.1031E+00  0.1021E+00
     34.324  0.5146E-02  0.4543E-02  0.1039E+00  0.1029E+00
     34.496  0.3029E-02  0.4777E-02  0.1045E+00  0.1037E+00
     34.669  0.1104E-02  0.3910E-02  0.1047E+00  0.1044E+00
     34.842  0.3922E-02  0.1329E-02  0.1053E+00  0.1046E+00
     35.015  0.4824E-02  0.3309E-02  0.1062E+00  0.1052E+00
     35.188  0.2537E-02  0.5283E-02  0.1066E+00  0.1061E+00
     35.360  0.2692E-02  0.2168E-02  0.1071E+00  0.1065E+00
     35.533  0.1753E-02  0.4180E-02  0.1074E+00  0.1072E+00
     35.706  0.1490E-02  0.1757E-02  0.1076E+00  0.1075E+00
     35.879  0.1148E-02  0.8762E-03  0.1078E+00  0.1077E+00
     36.052  0.2379E-02  0.1878E-02  0.1082E+00  0.1080E+00
     36.224  0.3603E-02  0.2794E-02  0.1089E+00  0.1085E+00
     36.397  0.2106E-02  0.2569E-02  0.1092E+00  0.1089E+00
     36.570  0.2488E-02  0.3323E-02  0.1097E+00  0.1095E+00
     36.743  0.7013E-02  0.1694E-02  0.1109E+00  0.1098E+00
     36.916  0.1626E-02  0.4108E-02  0.1112E+00  0.1105E+00
     37.088  0.3379E-03  0.3528E-02  0.1112E+00  0.1111E+00
     37.261  0.1464E-02  0.8461E-03  0.1115E+00  0.1112E+00
     37.434  0.2091E-02  0.2533E-02  0.1118E+00  0.1117E+00
     37.607  0.1693E-02  0.6845E-03  0.1121E+00  0.1118E+00
     37.780  0.1191E-02  0.1948E-02  0.1123E+00  0.1121E+00
     37.952  0.2337E-02  0.2059E-02  0.1127E+00  0.1125E+00
     38.125  0.1211E-02  0.1436E-02  0.1129E+00  0.1127E+00
     38.298  0.4420E-02  0.2735E-02  0.1137E+00  0.1132E+00
     38.471  0.1908E-02  0.3926E-02  0.1140E+00  0.1139E+00
     38.644  0.1948E-02  0.1465E-02  0.1144E+00  0.1141E+00
     38.816  0.2547E-02  0.3110E-03  0.1148E+00  0.1142E+00
     38.989  0.8827E-03  0.3761E-02  0.1150E+00  0.1148E+00
     39.162  0.5268E-03  0.6758E-03  0.1151E+00  0.1150E+00
     39.335  0.2169E-02  0.4706E-08  0.1154E+00  0.1150E+00
     39.508  0.9492E-03  0.1125E-02  0.1156E+00  0.1152E+00
     39.680  0.2567E-02  0.3700E-02  0.1160E+00  0.1158E+00
     39.853  0.2885E-02  0.1016E-02  0.1165E+00  0.1160E+00
     40.026  0.1709E-02  0.4461E-02  0.1168E+00  0.1167E+00
     40.199  0.4394E-04  0.5481E-03  0.1168E+00  0.1168E+00
     40.372  0.8265E-05  0.3977E-10  0.1168E+00  0.1168E+00
     40.544  0.1336E-02  0.6980E-10  0.1171E+00  0.1168E+00
     40.717  0.5782E-03  0.5609E-03  0.1172E+00  0.1169E+00
     40.890  0.2877E-02  0.4114E-02  0.1177E+00  0.1176E+00
     41.063  0.2617E-02  0.1188E-02  0.1181E+00  0.1178E+00
     41.236  0.1238E-03  0.6150E-03  0.1181E+00  0.1180E+00
     41.409  0.5968E-03  0.1628E-02  0.1182E+00  0.1182E+00
     41.581  0.9611E-03  0.3840E-04  0.1184E+00  0.1182E+00
     41.754  0.1073E-02  0.1985E-02  0.1186E+00  0.1186E+00
     41.927  0.6659E-08  0.4309E-04  0.1186E+00  0.1186E+00
     42.100  0.4124E-07  0.1971E-14  0.1186E+00  0.1186E+00
     42.273  0.1099E-02  0.2456E-04  0.1188E+00  0.1186E+00
     42.445  0.2577E-03  0.1328E-02  0.1188E+00  0.1188E+00
     42.618  0.5517E-11  0.3540E-05  0.1188E+00  0.1188E+00
     42.791  0.2460E-14  0.0000E+00  0.1188E+00  0.1188E+00
     42.964  0.1676E-04  0.1550E-08  0.1188E+00  0.1188E+00
     43.137  0.8438E-03  0.4207E-03  0.1190E+00  0.1189E+00
     43.309  0.1328E-02  0.1907E-02  0.1192E+00  0.1192E+00
     43.482  0.5246E-03  0.3850E-03  0.1193E+00  0.1193E+00
     43.655  0.1190E-07  0.2377E-10  0.1193E+00  0.1193E+00
     43.828  0.0000E+00  0.0000E+00  0.1193E+00  0.1193E+00
     44.001  0.0000E+00  0.6623E-15  0.1193E+00  0.1193E+00
     44.173  0.9637E-17  0.1070E-04  0.1193E+00  0.1193E+00
     44.346  0.3397E-05  0.6654E-03  0.1193E+00  0.1194E+00
     44.519  0.1328E-02  0.7755E-03  0.1195E+00  0.1195E+00
     44.692  0.2537E-04  0.5829E-03  0.1195E+00  0.1196E+00
     44.865  0.3362E-03  0.2776E-09  0.1196E+00  0.1196E+00
     45.037  0.1587E-02  0.1092E-17  0.1199E+00  0.1196E+00
     45.210  0.7888E-03  0.9335E-06  0.1200E+00  0.1196E+00
     45.383  0.3184E-06  0.6575E-03  0.1200E+00  0.1198E+00
     45.556  0.0000E+00  0.1976E-04  0.1200E+00  0.1198E+00
     45.729  0.0000E+00  0.0000E+00  0.1200E+00  0.1198E+00
     45.901  0.0000E+00  0.0000E+00  0.1200E+00  0.1198E+00
     46.074  0.0000E+00  0.0000E+00  0.1200E+00  0.1198E+00
     46.247  0.0000E+00  0.0000E+00  0.1200E+00  0.1198E+00
     46.420  0.0000E+00  0.2880E-13  0.1200E+00  0.1198E+00
     46.593  0.0000E+00  0.3686E-04  0.1200E+00  0.1198E+00
     46.765  0.0000E+00  0.6409E-03  0.1200E+00  0.1199E+00
     46.938  0.0000E+00  0.3475E-06  0.1200E+00  0.1199E+00
     47.111  0.0000E+00  0.8978E-14  0.1200E+00  0.1199E+00
     47.284  0.0000E+00  0.2561E-04  0.1200E+00  0.1199E+00
     47.457  0.0000E+00  0.6519E-03  0.1200E+00  0.1200E+00
     47.629  0.0000E+00  0.6337E-06  0.1200E+00  0.1200E+00
     47.802  0.0000E+00  0.0000E+00  0.1200E+00  0.1200E+00
     47.975  0.0000E+00  0.0000E+00  0.1200E+00  0.1200E+00
     48.148  0.0000E+00  0.0000E+00  0.1200E+00  0.1200E+00
     48.321  0.0000E+00  0.0000E+00  0.1200E+00  0.1200E+00
     48.493  0.0000E+00  0.0000E+00  0.1200E+00  0.1200E+00
     48.666  0.0000E+00  0.0000E+00  0.1200E+00  0.1200E+00
     48.839  0.0000E+00  0.0000E+00  0.1200E+00  0.1200E+00
     49.012  0.0000E+00  0.0000E+00  0.1200E+00  0.1200E+00
     49.185  0.0000E+00  0.0000E+00  0.1200E+00  0.1200E+00
     49.357  0.0000E+00  0.0000E+00  0.1200E+00  0.1200E+00
     49.530  0.0000E+00  0.0000E+00  0.1200E+00  0.1200E+00
     49.703  0.0000E+00  0.0000E+00  0.1200E+00  0.1200E+00
     49.70306780     -2.13794441  301      8.16864244      1.00000000
     -2.138  0.0000E+00  0.0000E+00  0.0000E+00  0.0000E+00  0.0000E+00  0.0000E+00  0.0000E+00  0.0000E+00  0.0000E+00  0.0000E+00  0.0000E+00  0.0000E+00  0.0000E+00  0.0000E+00  0.0000E+00  0.0000E+00  0.0000E+00  0.0000E+00
     -1.965  0.0000E+00  0.0000E+00  0.0000E+00  0.0000E+00  0.0000E+00  0.0000E+00  0.0000E+00  0.0000E+00  0.0000E+00  0.0000E+00  0.0000E+00  0.0000E+00  0.0000E+00  0.0000E+00  0.0000E+00  0.0000E+00  0.0000E+00  0.0000E+00
     -1.792  0.0000E+00  0.0000E+00  0.0000E+00  0.0000E+00  0.0000E+00  0.0000E+00  0.0000E+00  0.0000E+00  0.0000E+00  0.0000E+00  0.0000E+00  0.0000E+00  0.0000E+00  0.0000E+00  0.0000E+00  0.0000E+00  0.0000E+00  0.0000E+00
     -1.620  0.0000E+00  0.0000E+00  0.0000E+00  0.0000E+00  0.0000E+00  0.0000E+00  0.0000E+00  0.0000E+00  0.0000E+00  0.0000E+00  0.0000E+00  0.0000E+00  0.0000E+00  0.0000E+00  0.0000E+00  0.0000E+00  0.0000E+00  0.0000E+00
     -1.447  0.0000E+00  0.0000E+00  0.0000E+00  0.0000E+00  0.0000E+00  0.0000E+00  0.0000E+00  0.0000E+00  0.0000E+00  0.0000E+00  0.0000E+00  0.0000E+00  0.0000E+00  0.0000E+00  0.0000E+00  0.0000E+00  0.0000E+00  0.0000E+00
     -1.274  0.0000E+00  0.0000E+00  0.0000E+00  0.0000E+00  0.0000E+00  0.0000E+00  0.0000E+00  0.0000E+00  0.0000E+00  0.0000E+00  0.0000E+00  0.0000E+00  0.0000E+00  0.0000E+00  0.0000E+00  0.0000E+00  0.0000E+00  0.0000E+00
     -1.101  0.0000E+00  0.0000E+00  0.0000E+00  0.0000E+00  0.0000E+00  0.0000E+00  0.0000E+00  0.0000E+00  0.0000E+00  0.0000E+00  0.0000E+00  0.0000E+00  0.0000E+00  0.0000E+00  0.0000E+00  0.0000E+00  0.0000E+00  0.0000E+00
     -0.928  0.0000E+00  0.0000E+00  0.0000E+00  0.0000E+00  0.0000E+00  0.0000E+00  0.0000E+00  0.0000E+00  0.0000E+00  0.0000E+00  0.0000E+00  0.0000E+00  0.0000E+00  0.0000E+00  0.0000E+00  0.0000E+00  0.0000E+00  0.0000E+00
     -0.756  0.0000E+00  0.0000E+00  0.0000E+00  0.0000E+00  0.0000E+00  0.0000E+00  0.0000E+00  0.0000E+00  0.0000E+00  0.0000E+00  0.0000E+00  0.0000E+00  0.0000E+00  0.0000E+00  0.0000E+00  0.0000E+00  0.0000E+00  0.0000E+00
     -0.583  0.0000E+00  0.0000E+00  0.0000E+00  0.0000E+00  0.0000E+00  0.0000E+00  0.0000E+00  0.0000E+00  0.0000E+00  0.0000E+00  0.0000E+00  0.0000E+00  0.0000E+00  0.0000E+00  0.0000E+00  0.0000E+00  0.0000E+00  0.0000E+00
     -0.410  0.0000E+00  0.0000E+00  0.0000E+00  0.0000E+00  0.0000E+00  0.0000E+00  0.0000E+00  0.0000E+00  0.0000E+00  0.0000E+00  0.0000E+00  0.0000E+00  0.0000E+00  0.0000E+00  0.0000E+00  0.0000E+00  0.0000E+00  0.0000E+00
     -0.237  0.0000E+00  0.0000E+00  0.0000E+00  0.0000E+00  0.0000E+00  0.0000E+00  0.0000E+00  0.0000E+00  0.0000E+00  0.0000E+00  0.0000E+00  0.0000E+00  0.0000E+00  0.0000E+00  0.0000E+00  0.0000E+00  0.0000E+00  0.0000E+00
     -0.064  0.7449E-18  0.8117E-17  0.3269E-20  0.3603E-19  0.3269E-20  0.3603E-19  0.3269E-20  0.3603E-19  0.5590E-22  0.4179E-21  0.5590E-22  0.4179E-21  0.3909E-36  0.2029E-34  0.5590E-22  0.4179E-21  0.3909E-36  0.2029E-34
      0.108  0.4447E-05  0.1242E-04  0.1952E-07  0.5514E-07  0.1952E-07  0.5514E-07  0.1952E-07  0.5514E-07  0.3337E-09  0.6395E-09  0.3337E-09  0.6395E-09  0.2334E-23  0.3105E-22  0.3337E-09  0.6395E-09  0.2334E-23  0.3105E-22
      0.281  0.1249E-01  0.1278E-01  0.5480E-04  0.5673E-04  0.5480E-04  0.5673E-04  0.5480E-04  0.5673E-04  0.9371E-06  0.6579E-06  0.9371E-06  0.6579E-06  0.6553E-20  0.3194E-19  0.9371E-06  0.6579E-06  0.6553E-20  0.3194E-19
      0.454  0.9291E-03  0.5095E-03  0.4113E-05  0.2353E-05  0.4113E-05  0.2353E-05  0.4113E-05  0.2353E-05  0.7106E-07  0.2847E-07  0.7106E-07  0.2847E-07  0.2104E-08  0.3526E-08  0.7106E-07  0.2847E-07  0.2104E-08  0.3526E-08
      0.627  0.3359E-01  0.3500E-01  0.5476E-03  0.5784E-03  0.5476E-03  0.5784E-03  0.5476E-03  0.5784E-03  0.1753E-04  0.1218E-04  0.1753E-04  0.1218E-04  0.2355E-04  0.1633E-04  0.1753E-04  0.1218E-04  0.2355E-04  0.1633E-04
      0.800  0.5236E-02  0.3451E-02  0.8538E-04  0.5706E-04  0.8538E-04  0.5706E-04  0.8538E-04  0.5706E-04  0.2737E-05  0.1206E-05  0.2737E-05  0.1206E-05  0.3670E-05  0.1610E-05  0.2737E-05  0.1206E-05  0.3670E-05  0.1610E-05
      0.973  0.3158E-01  0.3230E-01  0.8898E-03  0.9276E-03  0.8898E-03  0.9276E-03  0.8898E-03  0.9276E-03  0.9651E-04  0.6373E-04  0.9651E-04  0.6373E-04  0.2217E-04  0.1507E-04  0.9651E-04  0.6373E-04  0.2217E-04  0.1507E-04
      1.145  0.5815E-02  0.4749E-02  0.1639E-03  0.1364E-03  0.1639E-03  0.1364E-03  0.1639E-03  0.1364E-03  0.1778E-04  0.9371E-05  0.1778E-04  0.9371E-05  0.4108E-05  0.2227E-05  0.1778E-04  0.9371E-05  0.4108E-05  0.2227E-05
      1.318  0.4220E-01  0.4120E-01  0.1720E-02  0.1714E-02  0.1720E-02  0.1714E-02  0.1720E-02  0.1714E-02  0.1563E-03  0.9338E-04  0.1563E-03  0.9338E-04  0.2682E-03  0.1599E-03  0.1563E-03  0.9338E-04  0.2682E-03  0.1599E-03
      1.491  0.5617E-02  0.6260E-02  0.2302E-03  0.2610E-03  0.2302E-03  0.2610E-03  0.2302E-03  0.2610E-03  0.1820E-04  0.1290E-04  0.1820E-04  0.1290E-04  0.3888E-04  0.2579E-04  0.1820E-04  0.1290E-04  0.3888E-04  0.2579E-04
      1.664  0.6547E-01  0.6234E-01  0.3477E-02  0.3397E-02  0.3477E-02  0.3397E-02  0.3477E-02  0.3397E-02  0.6403E-03  0.3710E-03  0.6403E-03  0.3710E-03  0.4480E-03  0.2577E-03  0.6403E-03  0.3710E-03  0.4480E-03  0.2577E-03
      1.837  0.4070E-02  0.6085E-02  0.2248E-03  0.3324E-03  0.2248E-03  0.3324E-03  0.2248E-03  0.3324E-03  0.5632E-04  0.3695E-04  0.5632E-04  0.3695E-04  0.2554E-04  0.2502E-04  0.5632E-04  0.3695E-04  0.2554E-04  0.2502E-04
      2.009  0.3170E-01  0.3208E-01  0.1981E-02  0.2104E-02  0.1981E-02  0.2104E-02  0.1981E-02  0.2104E-02  0.8755E-03  0.4910E-03  0.8755E-03  0.4910E-03  0.1376E-03  0.8185E-04  0.8755E-03  0.4910E-03  0.1376E-03  0.8185E-04
      2.182  0.1029E-01  0.1310E-02  0.8186E-03  0.9718E-04  0.8186E-03  0.9718E-04  0.8186E-03  0.9718E-04  0.1659E-03  0.1687E-04  0.1659E-03  0.1687E-04  0.3871E-03  0.1356E-04  0.1659E-03  0.1687E-04  0.3871E-03  0.1356E-04
      2.355  0.5144E-01  0.6136E-01  0.4081E-02  0.5036E-02  0.4081E-02  0.5036E-02  0.4081E-02  0.5036E-02  0.9777E-03  0.6431E-03  0.9777E-03  0.6431E-03  0.1677E-02  0.1090E-02  0.9777E-03  0.6431E-03  0.1677E-02  0.1090E-02
      2.528  0.7275E-01  0.1475E-01  0.6431E-02  0.1353E-02  0.6431E-02  0.1353E-02  0.6431E-02  0.1353E-02  0.3374E-02  0.4248E-03  0.3374E-02  0.4248E-03  0.2506E-02  0.1891E-03  0.3374E-02  0.4248E-03  0.2506E-02  0.1891E-03
      2.701  0.1763E-01  0.7471E-01  0.1655E-02  0.7050E-02  0.1655E-02  0.7050E-02  0.1655E-02  0.7050E-02  0.6568E-03  0.1610E-02  0.6568E-03  0.1610E-02  0.8862E-03  0.1502E-02  0.6568E-03  0.1610E-02  0.8862E-03  0.1502E-02
      2.873  0.2814E-01  0.1940E-01  0.2707E-02  0.2064E-02  0.2707E-02  0.2064E-02  0.2707E-02  0.2064E-02  0.2731E-02  0.7070E-03  0.2731E-02  0.7070E-03  0.1074E-02  0.4460E-03  0.2731E-02  0.7070E-03  0.1074E-02  0.4460E-03
      3.046  0.3898E-01  0.1037E-01  0.4506E-02  0.1097E-02  0.4506E-02  0.1097E-02  0.4506E-02  0.1097E-02  0.3929E-02  0.4669E-03  0.3929E-02  0.4669E-03  0.1605E-02  0.2041E-03  0.3929E-02  0.4669E-03  0.1605E-02  0.2041E-03
      3.219  0.8037E-01  0.5859E-01  0.9250E-02  0.7186E-02  0.9250E-02  0.7186E-02  0.9250E-02  0.7186E-02  0.1126E-01  0.3073E-02  0.1126E-01  0.3073E-02  0.9814E-02  0.1195E-02  0.1126E-01  0.3073E-02  0.9814E-02  0.1195E-02
      3.392  0.3949E-01  0.4353E-01  0.4695E-02  0.5599E-02  0.4695E-02  0.5599E-02  0.4695E-02  0.5599E-02  0.1001E-01  0.3112E-02  0.1001E-01  0.3112E-02  0.8365E-02  0.2203E-02  0.1001E-01  0.3112E-02  0.8365E-02  0.2203E-02
      3.565  0.4412E-01  0.3363E-01  0.5376E-02  0.4409E-02  0.5376E-02  0.4409E-02  0.5376E-02  0.4409E-02  0.1607E-01  0.2009E-02  0.1607E-01  0.2009E-02  0.1168E-01  0.2412E-02  0.1607E-01  0.2009E-02  0.1168E-01  0.2412E-02
      3.737  0.7759E-01  0.4722E-01  0.8744E-02  0.7362E-02  0.8744E-02  0.7362E-02  0.8744E-02  0.7362E-02  0.4343E-01  0.2012E-02  0.4343E-01  0.2012E-02  0.7270E-01  0.6509E-02  0.4343E-01  0.2012E-02  0.7270E-01  0.6509E-02
      3.910  0.1180E+00  0.3715E-01  0.1613E-01  0.5267E-02  0.1613E-01  0.5267E-02  0.1613E-01  0.5267E-02  0.7514E-01  0.5954E-02  0.7514E-01  0.5954E-02  0.1556E+00  0.2149E-02  0.7514E-01  0.5954E-02  0.1556E+00  0.2149E-02
      4.083  0.4678E-01  0.4214E-01  0.6310E-02  0.6915E-02  0.6310E-02  0.6915E-02  0.6310E-02  0.6915E-02  0.6280E-01  0.6600E-02  0.6280E-01  0.6600E-02  0.9192E-01  0.2098E-02  0.6280E-01  0.6600E-02  0.9192E-01  0.2098E-02
      4.256  0.7305E-01  0.5839E-01  0.1569E-01  0.1016E-01  0.1569E-01  0.1016E-01  0.1569E-01  0.1016E-01  0.1336E+00  0.1125E-01  0.1336E+00  0.1125E-01  0.2034E+00  0.5752E-02  0.1336E+00  0.1125E-01  0.2034E+00  0.5752E-02
      4.429  0.3231E-01  0.5747E-01  0.8996E-02  0.9638E-02  0.8996E-02  0.9638E-02  0.8996E-02  0.9638E-02  0.1948E+00  0.1301E-01  0.1948E+00  0.1301E-01  0.1208E+00  0.1429E-01  0.1948E+00  0.1301E-01  0.1208E+00  0.1429E-01
      4.601  0.2423E-01  0.3003E-01  0.1589E-01  0.4575E-02  0.1589E-01  0.4575E-02  0.1589E-01  0.4575E-02  0.2327E+00  0.1214E-01  0.2327E+00  0.1214E-01  0.1659E+00  0.9060E-02  0.2327E+00  0.1214E-01  0.1659E+00  0.9060E-02
      4.774  0.9236E-02  0.8744E-01  0.1398E-01  0.1332E-01  0.1398E-01  0.1332E-01  0.1398E-01  0.1332E-01  0.2056E+00  0.5295E-01  0.2056E+00  0.5295E-01  0.1160E+00  0.1915E-01  0.2056E+00  0.5295E-01  0.1160E+00  0.1915E-01
      4.947  0.4991E-02  0.5635E-01  0.1624E-01  0.1074E-01  0.1624E-01  0.1074E-01  0.1624E-01  0.1074E-01  0.2174E+00  0.2592E-01  0.2174E+00  0.2592E-01  0.1819E+00  0.3710E-01  0.2174E+00  0.2592E-01  0.1819E+00  0.3710E-01
      5.120  0.3734E-02  0.6150E-01  0.1101E-01  0.1404E-01  0.1101E-01  0.1404E-01  0.1101E-01  0.1404E-01  0.1828E+00  0.2729E-01  0.1828E+00  0.2729E-01  0.1497E+00  0.8851E-01  0.1828E+00  0.2729E-01  0.1497E+00  0.8851E-01
      5.293  0.8089E-02  0.5090E-01  0.1331E-01  0.8026E-02  0.1331E-01  0.8026E-02  0.1331E-01  0.8026E-02  0.2565E+00  0.5140E-01  0.2565E+00  0.5140E-01  0.1642E+00  0.7256E-01  0.2565E+00  0.5140E-01  0.1642E+00  0.7256E-01
      5.465  0.1499E-01  0.4256E-01  0.2045E-01  0.1320E-01  0.2045E-01  0.1320E-01  0.2045E-01  0.1320E-01  0.3531E+00  0.3942E-01  0.3531E+00  0.3942E-01  0.1958E+00  0.7616E-01  0.3531E+00  0.3942E-01  0.1958E+00  0.7616E-01
      5.638  0.1915E-01  0.4244E-01  0.2163E-01  0.1282E-01  0.2163E-01  0.1282E-01  0.2163E-01  0.1282E-01  0.3419E+00  0.9129E-01  0.3419E+00  0.9129E-01  0.3143E+00  0.9988E-01  0.3419E+00  0.9129E-01  0.3143E+00  0.9988E-01
      5.811  0.1777E-01  0.2002E-01  0.1956E-01  0.1386E-01  0.1956E-01  0.1386E-01  0.1956E-01  0.1386E-01  0.4279E+00  0.1494E+00  0.4279E+00  0.1494E+00  0.3268E+00  0.1037E+00  0.4279E+00  0.1494E+00  0.3268E+00  0.1037E+00
      5.984  0.1446E-01  0.1105E-01  0.1591E-01  0.1814E-01  0.1591E-01  0.1814E-01  0.1591E-01  0.1814E-01  0.2837E+00  0.1970E+00  0.2837E+00  0.1970E+00  0.3102E+00  0.1032E+00  0.2837E+00  0.1970E+00  0.3102E+00  0.1032E+00
      6.157  0.4838E-02  0.4700E-02  0.1090E-01  0.1523E-01  0.1090E-01  0.1523E-01  0.1090E-01  0.1523E-01  0.1671E+00  0.1377E+00  0.1671E+00  0.1377E+00  0.3928E+00  0.8308E-01  0.1671E+00  0.1377E+00  0.3928E+00  0.8308E-01
      6.329  0.1058E-01  0.2578E-02  0.1406E-01  0.1743E-01  0.1406E-01  0.1743E-01  0.1406E-01  0.1743E-01  0.1925E+00  0.1976E+00  0.1925E+00  0.1976E+00  0.5859E+00  0.8971E-01  0.1925E+00  0.1976E+00  0.5859E+00  0.8971E-01
      6.502  0.7182E-02  0.9061E-03  0.4979E-02  0.2252E-01  0.4979E-02  0.2252E-01  0.4979E-02  0.2252E-01  0.1201E+00  0.1308E+00  0.1201E+00  0.1308E+00  0.4334E+00  0.9968E-01  0.1201E+00  0.1308E+00  0.4334E+00  0.9968E-01