    1    1  100    2
  0.1285983E+02  0.2629764E-09  0.2629764E-09  0.2629764E-09  0.5000000E-15
  1.000000000000000E-004
  CAR 
 Co-fcc                                  
      9     60     12
 
  0.6250000E-01  0.6250000E-01  0.6250000E-01  0.3906250E-02
      1          0.228866        0.218465   1.000000   1.000000
      2          5.550235        7.259310   1.000000   1.000000
      3          5.610463        7.335363   1.000000   1.000000
      4          5.610463        7.335363   1.000000   1.000000
      5          6.324721        8.443321   1.000000   0.000000
      6          6.324721        8.443321   1.000000   0.000000
      7         29.199580       28.958076   0.000000   0.000000
      8         31.277728       31.374053   0.000000   0.000000
      9         32.464287       32.701465   0.000000   0.000000
     10         32.464287       32.701465   0.000000   0.000000
     11         35.942763       36.164607   0.000000   0.000000
     12         35.942767       36.164633   0.000000   0.000000
 
  0.1875000E+00  0.6250000E-01  0.6250000E-01  0.1171875E-01
      1          0.936680        0.932366   1.000000   1.000000
      2          5.395173        7.045916   1.000000   1.000000
      3          5.728058        7.478112   1.000000   1.000000
      4          5.734913        7.482716   1.000000   1.000000
      5          6.213735        8.299658   1.000000   0.000105
      6          6.401690        8.502675   1.000000   0.000000
      7         25.928803       26.136106   0.000000   0.000000
      8         28.404186       28.533685   0.000000   0.000000
      9         31.811720       31.781635   0.000000   0.000000
     10         33.390500       33.635270   0.000000   0.000000
     11         35.306769       35.200629   0.000000   0.000000
     12         36.177359       36.337994   0.000000   0.000000
 
  0.3125000E+00  0.6250000E-01  0.6250000E-01  0.1171875E-01
      1          2.457176        2.547971   1.000000   1.000000
      2          5.330151        6.775576   1.000000   1.000000
      3          5.669725        7.484401   1.000000   1.000000
      4          5.722056        7.564937   1.000000   1.000000
      5          6.406662        8.407062   1.000000   0.000000
      6          6.737265        8.762316   1.000000   0.000000
      7         20.140906       20.571232   0.000000   0.000000
      8         27.420573       27.557542   0.000000   0.000000
      9         30.841638       30.774036   0.000000   0.000000
     10         32.617361       33.000290   0.000000   0.000000
     11         34.045887       34.244402   0.000000   0.000000
     12         35.143219       35.186150   0.000000   0.000000
 
  0.4375000E+00  0.6250000E-01  0.6250000E-01  0.1171875E-01
      1          3.550546        4.249903   1.000000   1.000000
      2          5.487388        7.067869   1.000000   1.000000
      3          5.558008        7.327322   1.000000   1.000000
      4          6.240198        7.417335   1.000000   1.000000
      5          6.835856        8.851946   1.000000   0.000000
      6          7.466702        9.221814   1.000000   0.000000
      7         15.129160       15.843705   0.000000   0.000000
      8         27.160524       27.196485   0.000000   0.000000
      9         29.533932       29.539099   0.000000   0.000000
     10         30.642271       30.984727   0.000000   0.000000
     11         33.253838       33.504035   0.000000   0.000000
     12         34.748408       34.922781   0.000000   0.000000
 
 -0.4375000E+00  0.6250000E-01  0.6250000E-01  0.1171875E-01
      1          3.680018        4.677985   1.000000   1.000000
      2          5.412740        7.213976   1.000000   1.000000
      3          5.517567        7.369630   1.000000   1.000000
      4          6.637522        7.619607   1.000000   1.000000
      5          7.047376        9.097536   1.000000   0.000000
      6          8.421129        9.461304   0.000000   0.000000
      7         13.020659       14.030514   0.000000   0.000000
      8         27.592742       27.420416   0.000000   0.000000
      9         29.038665       29.356880   0.000000   0.000000
     10         29.266915       29.496041   0.000000   0.000000
     11         33.967128       34.215601   0.000000   0.000000
     12         34.123587       34.296666   0.000000   0.000000
 
 -0.3125000E+00  0.6250000E-01  0.6250000E-01  0.1171875E-01
      1          3.336513        3.777105   1.000000   1.000000
      2          5.517178        6.839260   1.000000   1.000000
      3          5.629781        7.367862   1.000000   1.000000
      4          5.791076        7.476972   1.000000   1.000000
      5          6.886507        8.847837   1.000000   0.000000
      6          6.987851        8.937131   1.000000   0.000000
      7         16.657592       17.253678   0.000000   0.000000
      8         28.322770       28.093188   0.000000   0.000000
      9         28.564150       28.900448   0.000000   0.000000
     10         30.599323       30.959294   0.000000   0.000000
     11         34.062797       34.193802   0.000000   0.000000
     12         35.590321       35.790817   0.000000   0.000000
 
 -0.1875000E+00  0.6250000E-01  0.6250000E-01  0.1171875E-01
      1          1.903918        1.936096   1.000000   1.000000
      2          5.283942        6.829929   1.000000   1.000000
      3          5.719681        7.534800   1.000000   1.000000
      4          5.768901        7.570264   1.000000   1.000000
      5          6.350463        8.343320   1.000000   0.000000
      6          6.535320        8.610395   1.000000   0.000000
      7         22.021244       22.383364   0.000000   0.000000
      8         29.093564       29.013161   0.000000   0.000000
      9         29.165873       29.436354   0.000000   0.000000
     10         33.162244       33.452134   0.000000   0.000000
     11         33.997128       34.048719   0.000000   0.000000
     12         37.584185       37.735238   0.000000   0.000000
 
 -0.6250000E-01  0.6250000E-01  0.6250000E-01  0.1171875E-01
      1          0.587876        0.579431   1.000000   1.000000
      2          5.444595        7.125684   1.000000   1.000000
      3          5.695196        7.429337   1.000000   1.000000
      4          5.698179        7.433379   1.000000   1.000000
      5          6.226466        8.318411   1.000000   0.000011
      6          6.376612        8.499991   1.000000   0.000000
      7         27.820913       27.868525   0.000000   0.000000
      8         30.071746       30.033478   0.000000   0.000000
      9         30.454064       30.761726   0.000000   0.000000
     10         32.531430       32.625083   0.000000   0.000000
     11         35.936077       36.081921   0.000000   0.000000
     12         37.682721       37.823933   0.000000   0.000000
 
  0.1875000E+00  0.1875000E+00  0.6250000E-01  0.1171875E-01
      1          1.277566        1.279703   1.000000   1.000000
      2          5.238269        6.870650   1.000000   1.000000
      3          5.837654        7.610345   1.000000   1.000000
      4          5.867627        7.624848   1.000000   1.000000
      5          6.102819        8.114503   1.000000   0.937152
      6          6.473101        8.604340   1.000000   0.000000
      7         26.191501       26.408212   0.000000   0.000000
      8         28.316448       28.645806   0.000000   0.000000
      9         28.831071       28.795061   0.000000   0.000000
     10         30.886418       30.895675   0.000000   0.000000
     11         34.497811       35.142604   0.000000   0.000000
     12         38.315775       38.353967   0.000000   0.000000
 
  0.3125000E+00  0.1875000E+00  0.6250000E-01  0.2343750E-01
      1          2.501882        2.572892   1.000000   1.000000
      2          5.013872        6.563918   1.000000   1.000000
      3          5.653040        7.491411   1.000000   1.000000
      4          6.052681        7.877562   1.000000   1.000000
      5          6.334306        8.231367   1.000000   0.038022
      6          6.794614        8.841864   1.000000   0.000000
      7         22.536762       22.881084   0.000000   0.000000
      8         24.973633       25.239174   0.000000   0.000000
      9         28.638697       28.731850   0.000000   0.000000
     10         30.321355       30.478005   0.000000   0.000000
     11         33.770259       34.247523   0.000000   0.000000
     12         38.212488       38.208871   0.000000   0.000000
 
  0.4375000E+00  0.1875000E+00  0.6250000E-01  0.2343750E-01
      1          3.780375        4.305491   1.000000   1.000000
      2          5.110093        6.460636   1.000000   1.000000
      3          5.440000        7.149101   1.000000   1.000000
      4          5.917595        7.798878   1.000000   1.000000
      5          6.872306        8.856583   1.000000   0.000000
      6          7.849148        9.489461   1.000000   0.000000
      7         17.161758       17.697592   0.000000   0.000000
      8         24.497221       24.738116   0.000000   0.000000
      9         26.145107       26.399902   0.000000   0.000000
     10         29.873277       30.047022   0.000000   0.000000
     11         36.108905       36.211930   0.000000   0.000000
     12         38.097241       38.348631   0.000000   0.000000
 
 -0.4375000E+00  0.1875000E+00  0.6250000E-01  0.2343750E-01
      1          4.070802        5.151673   1.000000   1.000000
      2          5.106916        6.641257   1.000000   1.000000
      3          5.775729        7.176179   1.000000   1.000000
      4          5.861702        7.681178   1.000000   1.000000
      5          7.024232        9.052526   1.000000   0.000000
      6          9.957958       10.842703   0.000000   0.000000
      7         13.253176       14.160591   0.000000   0.000000
      8         24.019652       24.245200   0.000000   0.000000
      9         25.339910       25.659089   0.000000   0.000000
     10         29.843331       29.922230   0.000000   0.000000
     11         35.235687       35.423327   0.000000   0.000000
     12         38.784384       38.842769   0.000000   0.000000
 
 -0.3125000E+00  0.1875000E+00  0.6250000E-01  0.2343750E-01
      1          3.996918        4.763442   1.000000   1.000000
      2          5.221573        6.641824   1.000000   1.000000
      3          5.540236        7.050275   1.000000   1.000000
      4          5.830670        7.722975   1.000000   1.000000
      5          6.787454        8.758532   1.000000   0.000000
      6          8.608096       10.047363   0.000000   0.000000
      7         15.605592       16.246674   0.000000   0.000000
      8         23.133682       23.424440   0.000000   0.000000
      9         26.940388       27.172335   0.000000   0.000000
     10         30.830234       30.910638   0.000000   0.000000
     11         34.682110       34.865794   0.000000   0.000000
     12         38.175766       38.261100   0.000000   0.000000
 
 -0.1875000E+00  0.1875000E+00  0.6250000E-01  0.2343750E-01
      1          3.028312        3.158635   1.000000   1.000000
      2          5.074475        6.579126   1.000000   1.000000
      3          5.525805        7.327919   1.000000   1.000000
      4          5.982238        7.876523   1.000000   1.000000
      5          6.289031        8.203722   1.000000   0.160551
      6          7.206273        9.147256   1.000000   0.000000
      7         20.677465       21.084744   0.000000   0.000000
      8         23.231909       23.536934   0.000000   0.000000
      9         29.418712       29.541838   0.000000   0.000000
     10         32.615136       32.729550   0.000000   0.000000
     11         34.271137       34.364526   0.000000   0.000000
     12         36.664693       36.968270   0.000000   0.000000
 
 -0.6250000E-01  0.1875000E+00  0.6250000E-01  0.2343750E-01
      1          1.604082        1.615854   1.000000   1.000000
      2          5.239782        6.844250   1.000000   1.000000
      3          5.752014        7.544348   1.000000   1.000000
      4          5.865571        7.641391   1.000000   1.000000
      5          6.163388        8.180797   1.000000   0.365507
      6          6.555890        8.638846   1.000000   0.000000
      7         24.139898       24.432002   0.000000   0.000000
      8         26.617109       26.828375   0.000000   0.000000
      9         30.917105       30.927122   0.000000   0.000000
     10         32.544894       32.552380   0.000000   0.000000
     11         34.880145       35.353840   0.000000   0.000000
     12         36.670266       36.790200   0.000000   0.000000
 
  0.3125000E+00  0.3125000E+00  0.6250000E-01  0.1171875E-01
      1          3.144599        3.396990   1.000000   1.000000
      2          4.694382        6.208149   1.000000   1.000000
      3          5.913014        7.581635   1.000000   1.000000
      4          6.381946        8.235817   1.000000   0.028717
      5          6.659389        8.427863   1.000000   0.000000
      6          6.752790        8.890052   1.000000   0.000000
      7         23.113067       23.412459   0.000000   0.000000
      8         24.570035       24.856306   0.000000   0.000000
      9         24.879706       25.107511   0.000000   0.000000
     10         27.420745       27.626905   0.000000   0.000000
     11         30.587893       31.054847   0.000000   0.000000
     12         43.335859       43.246056   0.000000   0.000000
 
  0.4375000E+00  0.3125000E+00  0.6250000E-01  0.2343750E-01
      1          3.837563        4.615223   1.000000   1.000000
      2          4.536638        5.987697   1.000000   1.000000
      3          5.896391        7.374237   1.000000   1.000000
      4          6.546660        8.497657   1.000000   0.000000
      5          6.909395        8.905006   1.000000   0.000000
      6          8.101493        9.564623   0.971235   0.000000
      7         19.990394       20.350045   0.000000   0.000000
      8         21.833681       22.189449   0.000000   0.000000
      9         22.468757       22.800657   0.000000   0.000000
     10         28.501234       28.706217   0.000000   0.000000
     11         31.928341       32.277130   0.000000   0.000000
     12         41.597796       41.686337   0.000000   0.000000
 
 -0.4375000E+00  0.3125000E+00  0.6250000E-01  0.2343750E-01
      1          4.255683        5.550470   1.000000   1.000000
      2          4.637275        5.992734   1.000000   1.000000
      3          5.680071        7.094122   1.000000   1.000000
      4          6.321598        8.318505   1.000000   0.000011
      5          7.081464        9.084196   1.000000   0.000000
      6         10.958421       11.826734   0.000000   0.000000
      7         15.275362       15.823479   0.000000   0.000000
      8         19.663931       20.137218   0.000000   0.000000
      9         22.749967       23.050046   0.000000   0.000000
     10         28.846594       29.030975   0.000000   0.000000
     11         36.701328       36.940653   0.000000   0.000000
     12         39.798469       39.941292   0.000000   0.000000
 
 -0.3125000E+00  0.3125000E+00  0.6250000E-01  0.2343750E-01
      1          4.630683        5.761403   1.000000   1.000000
      2          4.760822        6.263005   1.000000   1.000000
      3          5.334789        6.738923   1.000000   1.000000
      4          6.162024        8.182419   1.000000   0.348393
      5          6.853614        8.773377   1.000000   0.000000
      6         11.198833       12.107424   0.000000   0.000000
      7         15.147118       15.732318   0.000000   0.000000
      8         18.420406       18.921016   0.000000   0.000000
      9         24.303863       24.614336   0.000000   0.000000
     10         29.699631       29.828880   0.000000   0.000000
     11         37.882352       37.919170   0.000000   0.000000
     12         42.241481       42.346575   0.000000   0.000000
 
 -0.1875000E+00  0.3125000E+00  0.6250000E-01  0.2343750E-01
      1          4.224003        4.781375   1.000000   1.000000
      2          5.090178        6.492872   1.000000   1.000000
      3          5.175801        6.885260   1.000000   1.000000
      4          6.032613        8.004338   1.000000   0.999998
      5          6.567463        8.457576   1.000000   0.000000
      6          8.635584       10.161479   0.000000   0.000000
      7         17.683224       18.192043   0.000000   0.000000
      8         20.437940       20.824828   0.000000   0.000000
      9         26.704499       26.957749   0.000000   0.000000
     10         31.300256       31.404512   0.000000   0.000000
     11         35.362213       35.407632   0.000000   0.000000
     12         39.263237       39.500281   0.000000   0.000000
 
 -0.6250000E-01  0.3125000E+00  0.6250000E-01  0.2343750E-01
      1          3.148769        3.382489   1.000000   1.000000
      2          5.302755        6.654593   1.000000   1.000000
      3          5.533622        7.356703   1.000000   1.000000
      4          5.770378        7.629947   1.000000   1.000000
      5          6.595926        8.545009   1.000000   0.000000
      6          7.109430        9.051394   1.000000   0.000000
      7         18.521190       19.012752   0.000000   0.000000
      8         25.868215       26.076664   0.000000   0.000000
      9         29.265889       29.298185   0.000000   0.000000
     10         31.125304       31.421724   0.000000   0.000000
     11         34.903170       35.023637   0.000000   0.000000
     12         36.182764       36.316579   0.000000   0.000000
 
  0.4375000E+00  0.4375000E+00  0.6250000E-01  0.1171875E-01
      1          3.690058        4.852683   1.000000   1.000000
      2          4.254417        5.681167   1.000000   1.000000
      3          6.813421        8.414006   1.000000   0.000000
      4          6.866313        8.896018   1.000000   0.000000
      5          7.100892        9.136552   1.000000   0.000000
      6          8.854822        9.649709   0.000000   0.000000
      7         18.649458       19.241359   0.000000   0.000000
      8         20.993398       21.238005   0.000000   0.000000
      9         22.116270       22.305802   0.000000   0.000000
     10         26.540521       26.849864   0.000000   0.000000
     11         29.449818       29.847847   0.000000   0.000000
     12         45.010168       46.649316   0.000000   0.000000
 
 -0.4375000E+00  0.4375000E+00  0.6250000E-01  0.2343750E-01
      1          3.819422        5.168608   1.000000   1.000000
      2          4.272539        5.672936   1.000000   1.000000
      3          6.556780        8.084391   1.000000   0.991414
      4          6.771351        8.915992   1.000000   0.000000
      5          7.216449        9.180741   1.000000   0.000000
      6         11.156913       11.629938   0.000000   0.000000
      7         16.604607       17.385354   0.000000   0.000000
      8         18.742638       19.054197   0.000000   0.000000
      9         21.018856       21.254543   0.000000   0.000000
     10         27.878377       28.131527   0.000000   0.000000
     11         31.315384       31.664413   0.000000   0.000000
     12         44.445385       44.512710   0.000000   0.000000
 
 -0.3125000E+00  0.4375000E+00  0.6250000E-01  0.2343750E-01
      1          4.221117        5.664653   1.000000   1.000000
      2          4.566570        5.893983   1.000000   1.000000
      3          5.821989        7.230055   1.000000   1.000000
      4          6.444137        8.520350   1.000000   0.000000
      5          7.083989        9.034308   1.000000   0.000000
      6         12.850338       13.436905   0.000000   0.000000
      7         14.769523       15.303378   0.000000   0.000000
      8         17.239340       17.886151   0.000000   0.000000
      9         22.343403       22.636377   0.000000   0.000000
     10         28.682059       28.882781   0.000000   0.000000
     11         36.612832       36.885108   0.000000   0.000000
     12         40.996744       41.030186   0.000000   0.000000
 
 -0.1875000E+00  0.4375000E+00  0.6250000E-01  0.2343750E-01
      1          4.374926        5.532304   1.000000   1.000000
      2          4.885327        6.349786   1.000000   1.000000
      3          5.575853        6.968218   1.000000   1.000000
      4          5.987472        7.936743   1.000000   1.000000
      5          6.957045        8.945048   1.000000   0.000000
      6         11.021129       11.837841   0.000000   0.000000
      7         13.545335       14.358587   0.000000   0.000000
      8         21.051139       21.426266   0.000000   0.000000
      9         24.630950       24.933775   0.000000   0.000000
     10         29.744217       29.848847   0.000000   0.000000
     11         36.560899       36.686177   0.000000   0.000000
     12         40.797615       40.833058   0.000000   0.000000
 
 -0.6250000E-01  0.4375000E+00  0.6250000E-01  0.2343750E-01
      1          3.791993        4.718209   1.000000   1.000000
      2          5.333468        6.975927   1.000000   1.000000
      3          5.624267        7.283688   1.000000   1.000000
      4          6.128605        7.495865   1.000000   1.000000
      5          6.980284        9.005736   1.000000   0.000000
      6          8.533173        9.782066   0.000000   0.000000
      7         13.960435       14.790663   0.000000   0.000000
      8         25.963039       26.072141   0.000000   0.000000
      9         27.475684       27.725033   0.000000   0.000000
     10         30.006797       30.126843   0.000000   0.000000
     11         34.222283       34.449296   0.000000   0.000000
     12         36.352355       36.472727   0.000000   0.000000
 
 -0.4375000E+00 -0.4375000E+00  0.6250000E-01  0.1171875E-01
      1          3.651714        4.970422   1.000000   1.000000
      2          4.153935        5.561773   1.000000   1.000000
      3          6.890891        8.816478   1.000000   0.000000
      4          7.073978        9.075244   1.000000   0.000000
      5          7.225456        9.198219   1.000000   0.000000
      6         10.364332       10.615389   0.000000   0.000000
      7         16.461102       17.286150   0.000000   0.000000
      8         20.498301       20.709688   0.000000   0.000000
      9         21.578444       21.735402   0.000000   0.000000
     10         26.387343       26.721694   0.000000   0.000000
     11         29.290533       29.691160   0.000000   0.000000
     12         45.093217       47.346658   0.000000   0.000000
 
 -0.3125000E+00 -0.4375000E+00  0.6250000E-01  0.2343750E-01
      1          3.870736        5.069363   1.000000   1.000000
      2          4.364148        5.782026   1.000000   1.000000
      3          6.293695        7.743281   1.000000   1.000000
      4          6.727652        8.781987   1.000000   0.000000
      5          7.096520        9.088675   1.000000   0.000000
      6          9.592279       10.508787   0.000000   0.000000
      7         18.814082       19.315128   0.000000   0.000000
      8         19.251025       19.644793   0.000000   0.000000
      9         21.490217       21.750297   0.000000   0.000000
     10         28.078207       28.313574   0.000000   0.000000
     11         31.503605       31.848728   0.000000   0.000000
     12         43.175487       43.287194   0.000000   0.000000
 
 -0.1875000E+00 -0.4375000E+00  0.6250000E-01  0.2343750E-01
      1          4.158726        5.099996   1.000000   1.000000
      2          4.832664        6.214346   1.000000   1.000000
      3          5.509216        7.027734   1.000000   1.000000
      4          6.121913        8.047499   1.000000   0.999694
      5          7.028132        9.054661   1.000000   0.000000
      6          9.171767       10.396688   0.000000   0.000000
      7         16.071077       16.625647   0.000000   0.000000
      8         22.650345       22.960864   0.000000   0.000000
      9         23.597043       23.930321   0.000000   0.000000
     10         29.213875       29.377957   0.000000   0.000000
     11         36.702389       36.860491   0.000000   0.000000
     12         38.677551       38.932388   0.000000   0.000000
 
 -0.3125000E+00 -0.3125000E+00  0.6250000E-01  0.1171875E-01
      1          3.630296        4.373179   1.000000   1.000000
      2          4.442779        5.905909   1.000000   1.000000
      3          6.426956        7.797465   1.000000   1.000000
      4          6.640809        8.589633   1.000000   0.000000
      5          6.920848        8.915286   1.000000   0.000000
      6          7.409099        9.028790   1.000000   0.000000
      7         21.537742       21.897187   0.000000   0.000000
      8         21.995860       22.328773   0.000000   0.000000
      9         23.139976       23.378767   0.000000   0.000000
     10         26.865164       27.127587   0.000000   0.000000
     11         29.835496       30.243956   0.000000   0.000000
     12         44.884589       45.316035   0.000000   0.000000
 
 -0.1875000E+00 -0.3125000E+00  0.6250000E-01  0.2343750E-01
      1          3.387975        3.671182   1.000000   1.000000
      2          4.765617        6.261881   1.000000   1.000000
      3          5.614664        7.334306   1.000000   1.000000
      4          6.291487        8.170350   1.000000   0.480742
      5          6.650157        8.552835   1.000000   0.000000
      6          7.205213        9.097447   1.000000   0.000000
      7         21.142273       21.508568   0.000000   0.000000
      8         23.502210       23.784020   0.000000   0.000000
      9         25.328549       25.602447   0.000000   0.000000
     10         29.199877       29.373958   0.000000   0.000000
     11         32.662893       33.045469   0.000000   0.000000
     12         39.960789       40.006851   0.000000   0.000000
 
 -0.1875000E+00 -0.1875000E+00  0.6250000E-01  0.1171875E-01
      1          2.212561        2.263451   1.000000   1.000000
      2          4.973735        6.546790   1.000000   1.000000
      3          5.815023        7.683508   1.000000   1.000000
      4          6.105435        7.900034   1.000000   1.000000
      5          6.261242        8.085004   1.000000   0.991001
      6          6.602527        8.741149   1.000000   0.000000
      7         24.590531       24.879040   0.000000   0.000000
      8         26.322603       26.641841   0.000000   0.000000
      9         27.552695       27.558208   0.000000   0.000000
     10         28.653590       28.789648   0.000000   0.000000
     11         31.998719       32.599257   0.000000   0.000000
     12         40.797754       40.728260   0.000000   0.000000
 
  0.1875000E+00  0.1875000E+00  0.1875000E+00  0.3906250E-02
      1          1.270587        1.274908   1.000000   1.000000
      2          5.379188        6.985378   1.000000   1.000000
      3          5.729861        7.501497   1.000000   1.000000
      4          5.729861        7.501497   1.000000   1.000000
      5          6.341802        8.418442   1.000000   0.000000
      6          6.341802        8.418442   1.000000   0.000000
      7         23.875777       24.170946   0.000000   0.000000
      8         30.214811       29.940573   0.000000   0.000000
      9         31.262423       31.589783   0.000000   0.000000
     10         31.262423       31.589783   0.000000   0.000000
     11         36.710385       36.554456   0.000000   0.000000
     12         37.081694       37.151483   0.000000   0.000000
 
  0.3125000E+00  0.1875000E+00  0.1875000E+00  0.1171875E-01
      1          2.220609        2.262921   1.000000   1.000000
      2          5.194294        6.751106   1.000000   1.000000
      3          5.680650        7.473105   1.000000   1.000000
      4          5.897618        7.725271   1.000000   1.000000
      5          6.140451        8.143036   1.000000   0.765544
      6          6.815853        8.836392   1.000000   0.000000
      7         22.292354       22.648259   0.000000   0.000000
      8         24.815715       25.076326   0.000000   0.000000
      9         32.156142       32.052451   0.000000   0.000000
     10         33.696664       33.868345   0.000000   0.000000
     11         33.944170       33.927912   0.000000   0.000000
     12         35.067346       35.435512   0.000000   0.000000
 
  0.4375000E+00  0.1875000E+00  0.1875000E+00  0.1171875E-01
      1          3.665884        3.942271   1.000000   1.000000
      2          5.115972        6.562267   1.000000   1.000000
      3          5.400415        7.153813   1.000000   1.000000
      4          5.915652        7.882562   1.000000   1.000000
      5          6.360736        8.244385   1.000000   0.016084
      6          7.774192        9.574986   1.000000   0.000000
      7         19.057575       19.523408   0.000000   0.000000
      8         21.697692       22.046378   0.000000   0.000000
      9         30.227621       30.222263   0.000000   0.000000
     10         30.263617       30.572786   0.000000   0.000000
     11         35.770640       35.685927   0.000000   0.000000
     12         36.879419       37.104673   0.000000   0.000000
 
 -0.4375000E+00  0.1875000E+00  0.1875000E+00  0.1171875E-01
      1          4.185542        5.177401   1.000000   1.000000
      2          5.104198        6.623737   1.000000   1.000000
      3          5.661397        7.009471   1.000000   1.000000
      4          5.834688        7.760789   1.000000   1.000000
      5          6.835099        8.813991   1.000000   0.000000
      6          9.674702       10.793016   0.000000   0.000000
      7         14.367527       15.110290   0.000000   0.000000
      8         21.950476       22.285165   0.000000   0.000000
      9         27.446325       27.777363   0.000000   0.000000
     10         28.697160       28.722202   0.000000   0.000000