PROCAR lm decomposed
# of k-points:   60         # of bands:   12         # of ions:    1

 k-point     1 :    0.06250000 0.06250000 0.06250000     weight = 0.00390625

band     1 # energy    0.22886644 # occ.  1.00000000
 
ion      s     py     pz     px    dxy    dyz    dz2    dxz  x2-y2    tot
    1  0.594  0.003  0.003  0.003  0.000  0.000  0.000  0.000  0.000  0.602
 
band     2 # energy    5.55023548 # occ.  1.00000000
 
ion      s     py     pz     px    dxy    dyz    dz2    dxz  x2-y2    tot
    1  0.000  0.000  0.000  0.000  0.319  0.319  0.000  0.319  0.000  0.958
 
band     3 # energy    5.61046265 # occ.  1.00000000
 
ion      s     py     pz     px    dxy    dyz    dz2    dxz  x2-y2    tot
    1  0.000  0.000  0.000  0.000  0.631  0.102  0.001  0.226  0.000  0.961
 
band     4 # energy    5.61046265 # occ.  1.00000000
 
ion      s     py     pz     px    dxy    dyz    dz2    dxz  x2-y2    tot
    1  0.000  0.000  0.000  0.000  0.009  0.537  0.000  0.413  0.001  0.961
 
band     5 # energy    6.32472095 # occ.  1.00000000
 
ion      s     py     pz     px    dxy    dyz    dz2    dxz  x2-y2    tot
    1  0.000  0.000  0.000  0.000  0.000  0.001  0.040  0.001  0.938  0.979
 
band     6 # energy    6.32472095 # occ.  1.00000000
 
ion      s     py     pz     px    dxy    dyz    dz2    dxz  x2-y2    tot
    1  0.000  0.000  0.000  0.000  0.001  0.000  0.938  0.000  0.040  0.979
 
band     7 # energy   29.19957970 # occ.  0.00000000
 
ion      s     py     pz     px    dxy    dyz    dz2    dxz  x2-y2    tot
    1  0.002  0.016  0.016  0.016  0.055  0.055  0.000  0.055  0.000  0.214
 
band     8 # energy   31.27772806 # occ.  0.00000000
 
ion      s     py     pz     px    dxy    dyz    dz2    dxz  x2-y2    tot
    1  0.018  0.091  0.091  0.091  0.023  0.023  0.000  0.023  0.000  0.360
 
band     9 # energy   32.46428703 # occ.  0.00000000
 
ion      s     py     pz     px    dxy    dyz    dz2    dxz  x2-y2    tot
    1  0.000  0.145  0.004  0.200  0.002  0.078  0.000  0.057  0.009  0.496
 
band    10 # energy   32.46428703 # occ.  0.00000000
 
ion      s     py     pz     px    dxy    dyz    dz2    dxz  x2-y2    tot
    1  0.000  0.088  0.229  0.033  0.089  0.013  0.009  0.034  0.000  0.496
 
band    11 # energy   35.94276333 # occ.  0.00000000
 
ion      s     py     pz     px    dxy    dyz    dz2    dxz  x2-y2    tot
    1  0.000  0.009  0.000  0.012  0.007  0.497  0.000  0.384  0.004  0.913
 
band    12 # energy   35.94276741 # occ.  0.00000000
 
ion      s     py     pz     px    dxy    dyz    dz2    dxz  x2-y2    tot
    1  0.000  0.005  0.014  0.002  0.586  0.095  0.004  0.208  0.000  0.913
 

 k-point     2 :    0.18750000 0.06250000 0.06250000     weight = 0.01171875

band     1 # energy    0.93667988 # occ.  1.00000000
 
ion      s     py     pz     px    dxy    dyz    dz2    dxz  x2-y2    tot
    1  0.551  0.022  0.022  0.002  0.001  0.004  0.000  0.001  0.001  0.604
 
band     2 # energy    5.39517256 # occ.  1.00000000
 
ion      s     py     pz     px    dxy    dyz    dz2    dxz  x2-y2    tot
    1  0.000  0.001  0.001  0.004  0.454  0.033  0.000  0.454  0.000  0.947
 
band     3 # energy    5.72805843 # occ.  1.00000000
 
ion      s     py     pz     px    dxy    dyz    dz2    dxz  x2-y2    tot
    1  0.000  0.002  0.002  0.000  0.016  0.822  0.026  0.016  0.078  0.960
 
band     4 # energy    5.73491261 # occ.  1.00000000
 
ion      s     py     pz     px    dxy    dyz    dz2    dxz  x2-y2    tot
    1  0.000  0.000  0.000  0.000  0.467  0.000  0.021  0.467  0.007  0.962
 
band     5 # energy    6.21373550 # occ.  1.00000000
 
ion      s     py     pz     px    dxy    dyz    dz2    dxz  x2-y2    tot
    1  0.000  0.000  0.000  0.000  0.014  0.000  0.709  0.014  0.236  0.974
 
band     6 # energy    6.40168982 # occ.  1.00000000
 
ion      s     py     pz     px    dxy    dyz    dz2    dxz  x2-y2    tot
    1  0.001  0.000  0.000  0.000  0.002  0.099  0.218  0.002  0.655  0.978
 
band     7 # energy   25.92880342 # occ.  0.00000000
 
ion      s     py     pz     px    dxy    dyz    dz2    dxz  x2-y2    tot
    1  0.030  0.055  0.055  0.126  0.130  0.071  0.000  0.130  0.001  0.599
 
band     8 # energy   28.40418627 # occ.  0.00000000
 
ion      s     py     pz     px    dxy    dyz    dz2    dxz  x2-y2    tot
    1  0.036  0.087  0.087  0.059  0.060  0.113  0.004  0.060  0.013  0.519
 
band     9 # energy   31.81172004 # occ.  0.00000000
 
ion      s     py     pz     px    dxy    dyz    dz2    dxz  x2-y2    tot
    1  0.003  0.004  0.004  0.205  0.001  0.044  0.000  0.001  0.001  0.262
 
band    10 # energy   33.39050034 # occ.  0.00000000
 
ion      s     py     pz     px    dxy    dyz    dz2    dxz  x2-y2    tot
    1  0.000  0.146  0.146  0.000  0.092  0.000  0.066  0.092  0.022  0.564
 
band    11 # energy   35.30676933 # occ.  0.00000000
 
ion      s     py     pz     px    dxy    dyz    dz2    dxz  x2-y2    tot
    1  0.000  0.053  0.053  0.013  0.000  0.174  0.013  0.000  0.039  0.344
 
band    12 # energy   36.17735894 # occ.  0.00000000
 
ion      s     py     pz     px    dxy    dyz    dz2    dxz  x2-y2    tot
    1  0.000  0.000  0.000  0.000  0.341  0.000  0.084  0.341  0.028  0.794
 

 k-point     3 :    0.31250000 0.06250000 0.06250000     weight = 0.01171875

band     1 # energy    2.45717582 # occ.  1.00000000
 
ion      s     py     pz     px    dxy    dyz    dz2    dxz  x2-y2    tot
    1  0.428  0.045  0.045  0.013  0.026  0.049  0.001  0.026  0.003  0.637
 
band     2 # energy    5.33015080 # occ.  1.00000000
 
ion      s     py     pz     px    dxy    dyz    dz2    dxz  x2-y2    tot
    1  0.019  0.015  0.015  0.022  0.386  0.053  0.001  0.386  0.002  0.899
 
band     3 # energy    5.66972453 # occ.  1.00000000
 
ion      s     py     pz     px    dxy    dyz    dz2    dxz  x2-y2    tot
    1  0.000  0.002  0.002  0.000  0.028  0.449  0.111  0.028  0.333  0.955
 
band     4 # energy    5.72205593 # occ.  1.00000000
 
ion      s     py     pz     px    dxy    dyz    dz2    dxz  x2-y2    tot
    1  0.000  0.000  0.000  0.000  0.246  0.000  0.352  0.246  0.117  0.960
 
band     5 # energy    6.40666226 # occ.  1.00000000
 
ion      s     py     pz     px    dxy    dyz    dz2    dxz  x2-y2    tot
    1  0.000  0.001  0.001  0.000  0.238  0.000  0.373  0.238  0.124  0.974
 
band     6 # energy    6.73726520 # occ.  1.00000000
 
ion      s     py     pz     px    dxy    dyz    dz2    dxz  x2-y2    tot
    1  0.008  0.004  0.004  0.000  0.017  0.401  0.130  0.017  0.391  0.974
 
band     7 # energy   20.14090581 # occ.  0.00000000
 
ion      s     py     pz     px    dxy    dyz    dz2    dxz  x2-y2    tot
    1  0.120  0.077  0.077  0.127  0.103  0.080  0.001  0.103  0.002  0.688
 
band     8 # energy   27.42057347 # occ.  0.00000000
 
ion      s     py     pz     px    dxy    dyz    dz2    dxz  x2-y2    tot
    1  0.029  0.046  0.046  0.151  0.081  0.064  0.012  0.081  0.036  0.548
 
band     9 # energy   30.84163823 # occ.  0.00000000
 
ion      s     py     pz     px    dxy    dyz    dz2    dxz  x2-y2    tot
    1  0.000  0.051  0.051  0.100  0.000  0.068  0.000  0.000  0.000  0.272
 
band    10 # energy   32.61736053 # occ.  0.00000000
 
ion      s     py     pz     px    dxy    dyz    dz2    dxz  x2-y2    tot
    1  0.000  0.218  0.218  0.000  0.152  0.000  0.011  0.152  0.004  0.755
 
band    11 # energy   34.04588664 # occ.  0.00000000
 
ion      s     py     pz     px    dxy    dyz    dz2    dxz  x2-y2    tot
    1  0.000  0.049  0.049  0.000  0.019  0.000  0.429  0.019  0.143  0.707
 
band    12 # energy   35.14321918 # occ.  0.00000000
 
ion      s     py     pz     px    dxy    dyz    dz2    dxz  x2-y2    tot
    1  0.054  0.053  0.053  0.012  0.011  0.034  0.056  0.011  0.168  0.451
 

 k-point     4 :    0.43750000 0.06250000 0.06250000     weight = 0.01171875

band     1 # energy    3.55054624 # occ.  1.00000000
 
ion      s     py     pz     px    dxy    dyz    dz2    dxz  x2-y2    tot
    1  0.193  0.016  0.016  0.002  0.182  0.204  0.000  0.182  0.001  0.797
 
band     2 # energy    5.48738817 # occ.  1.00000000
 
ion      s     py     pz     px    dxy    dyz    dz2    dxz  x2-y2    tot
    1  0.000  0.001  0.001  0.000  0.045  0.269  0.147  0.045  0.441  0.950
 
band     3 # energy    5.55800786 # occ.  1.00000000
 
ion      s     py     pz     px    dxy    dyz    dz2    dxz  x2-y2    tot
    1  0.000  0.000  0.000  0.000  0.173  0.000  0.457  0.173  0.152  0.955
 
band     4 # energy    6.24019797 # occ.  1.00000000
 
ion      s     py     pz     px    dxy    dyz    dz2    dxz  x2-y2    tot
    1  0.047  0.062  0.062  0.062  0.202  0.047  0.030  0.202  0.089  0.803
 
band     5 # energy    6.83585586 # occ.  1.00000000
 
ion      s     py     pz     px    dxy    dyz    dz2    dxz  x2-y2    tot
    1  0.000  0.000  0.000  0.000  0.314  0.000  0.266  0.314  0.089  0.983
 
band     6 # energy    7.46670208 # occ.  1.00000000
 
ion      s     py     pz     px    dxy    dyz    dz2    dxz  x2-y2    tot
    1  0.054  0.050  0.050  0.032  0.002  0.418  0.064  0.002  0.192  0.866
 
band     7 # energy   15.12915986 # occ.  0.00000000
 
ion      s     py     pz     px    dxy    dyz    dz2    dxz  x2-y2    tot
    1  0.268  0.046  0.046  0.090  0.107  0.083  0.001  0.107  0.002  0.751
 
band     8 # energy   27.16052355 # occ.  0.00000000
 
ion      s     py     pz     px    dxy    dyz    dz2    dxz  x2-y2    tot
    1  0.020  0.022  0.022  0.179  0.050  0.036  0.023  0.050  0.068  0.469
 
band     9 # energy   29.53393224 # occ.  0.00000000
 
ion      s     py     pz     px    dxy    dyz    dz2    dxz  x2-y2    tot
    1  0.009  0.087  0.087  0.123  0.002  0.005  0.000  0.002  0.000  0.315
 
band    10 # energy   30.64227066 # occ.  0.00000000
 
ion      s     py     pz     px    dxy    dyz    dz2    dxz  x2-y2    tot
    1  0.000  0.275  0.275  0.000  0.002  0.000  0.080  0.002  0.027  0.660
 
band    11 # energy   33.25383848 # occ.  0.00000000
 
ion      s     py     pz     px    dxy    dyz    dz2    dxz  x2-y2    tot
    1  0.000  0.020  0.020  0.000  0.159  0.000  0.357  0.159  0.119  0.833
 
band    12 # energy   34.74840834 # occ.  0.00000000
 
ion      s     py     pz     px    dxy    dyz    dz2    dxz  x2-y2    tot
    1  0.046  0.013  0.013  0.011  0.000  0.198  0.106  0.000  0.318  0.705
 

 k-point     5 :   -0.43750000 0.06250000 0.06250000     weight = 0.01171875

band     1 # energy    3.68001810 # occ.  1.00000000
 
ion      s     py     pz     px    dxy    dyz    dz2    dxz  x2-y2    tot
    1  0.134  0.000  0.000  0.005  0.229  0.248  0.000  0.229  0.000  0.844
 
band     2 # energy    5.41273956 # occ.  1.00000000
 
ion      s     py     pz     px    dxy    dyz    dz2    dxz  x2-y2    tot
    1  0.000  0.001  0.001  0.000  0.060  0.189  0.159  0.060  0.477  0.947
 
band     3 # energy    5.51756663 # occ.  1.00000000
 
ion      s     py     pz     px    dxy    dyz    dz2    dxz  x2-y2    tot
    1  0.000  0.000  0.000  0.000  0.172  0.000  0.457  0.172  0.152  0.954
 
band     4 # energy    6.63752222 # occ.  1.00000000
 
ion      s     py     pz     px    dxy    dyz    dz2    dxz  x2-y2    tot
    1  0.002  0.035  0.035  0.034  0.078  0.405  0.057  0.078  0.171  0.896
 
band     5 # energy    7.04737617 # occ.  1.00000000
 
ion      s     py     pz     px    dxy    dyz    dz2    dxz  x2-y2    tot
    1  0.000  0.000  0.000  0.000  0.316  0.000  0.267  0.316  0.089  0.989
 
band     6 # energy    8.42112903 # occ.  0.00000000
 
ion      s     py     pz     px    dxy    dyz    dz2    dxz  x2-y2    tot
    1  0.010  0.137  0.137  0.152  0.041  0.041  0.025  0.041  0.075  0.659
 
band     7 # energy   13.02065902 # occ.  0.00000000
 
ion      s     py     pz     px    dxy    dyz    dz2    dxz  x2-y2    tot
    1  0.413  0.011  0.011  0.000  0.124  0.138  0.000  0.124  0.000  0.821
 
band     8 # energy   27.59274231 # occ.  0.00000000
 
ion      s     py     pz     px    dxy    dyz    dz2    dxz  x2-y2    tot
    1  0.003  0.001  0.001  0.094  0.012  0.032  0.030  0.012  0.089  0.272
 
band     9 # energy   29.03866520 # occ.  0.00000000
 
ion      s     py     pz     px    dxy    dyz    dz2    dxz  x2-y2    tot
    1  0.000  0.256  0.256  0.000  0.025  0.000  0.076  0.025  0.025  0.663
 
band    10 # energy   29.26691477 # occ.  0.00000000
 
ion      s     py     pz     px    dxy    dyz    dz2    dxz  x2-y2    tot
    1  0.036  0.092  0.092  0.265  0.007  0.013  0.003  0.007  0.009  0.525
 
band    11 # energy   33.96712831 # occ.  0.00000000
 
ion      s     py     pz     px    dxy    dyz    dz2    dxz  x2-y2    tot
    1  0.000  0.048  0.048  0.000  0.119  0.000  0.355  0.119  0.118  0.806
 
band    12 # energy   34.12358739 # occ.  0.00000000
 
ion      s     py     pz     px    dxy    dyz    dz2    dxz  x2-y2    tot
    1  0.009  0.002  0.002  0.024  0.020  0.209  0.112  0.020  0.336  0.734
 

 k-point     6 :   -0.31250000 0.06250000 0.06250000     weight = 0.01171875

band     1 # energy    3.33651321 # occ.  1.00000000
 
ion      s     py     pz     px    dxy    dyz    dz2    dxz  x2-y2    tot
    1  0.264  0.013  0.013  0.041  0.136  0.132  0.002  0.136  0.005  0.742
 
band     2 # energy    5.51717823 # occ.  1.00000000
 
ion      s     py     pz     px    dxy    dyz    dz2    dxz  x2-y2    tot
    1  0.000  0.002  0.002  0.001  0.101  0.114  0.156  0.101  0.469  0.948
 
band     3 # energy    5.62978096 # occ.  1.00000000
 
ion      s     py     pz     px    dxy    dyz    dz2    dxz  x2-y2    tot
    1  0.000  0.001  0.001  0.000  0.211  0.000  0.400  0.211  0.133  0.957
 
band     4 # energy    5.79107592 # occ.  1.00000000
 
ion      s     py     pz     px    dxy    dyz    dz2    dxz  x2-y2    tot
    1  0.057  0.050  0.050  0.051  0.014  0.559  0.005  0.014  0.016  0.817
 
band     5 # energy    6.88650683 # occ.  1.00000000
 
ion      s     py     pz     px    dxy    dyz    dz2    dxz  x2-y2    tot
    1  0.000  0.000  0.000  0.000  0.274  0.000  0.327  0.274  0.109  0.985
 
band     6 # energy    6.98785135 # occ.  1.00000000
 
ion      s     py     pz     px    dxy    dyz    dz2    dxz  x2-y2    tot
    1  0.035  0.014  0.014  0.030  0.204  0.117  0.077  0.204  0.231  0.926
 
band     7 # energy   16.65759181 # occ.  0.00000000
 
ion      s     py     pz     px    dxy    dyz    dz2    dxz  x2-y2    tot
    1  0.209  0.092  0.092  0.050  0.085  0.110  0.001  0.085  0.002  0.726
 
band     8 # energy   28.32276974 # occ.  0.00000000
 
ion      s     py     pz     px    dxy    dyz    dz2    dxz  x2-y2    tot
    1  0.008  0.006  0.006  0.001  0.000  0.094  0.021  0.000  0.063  0.200
 
band     9 # energy   28.56414967 # occ.  0.00000000
 
ion      s     py     pz     px    dxy    dyz    dz2    dxz  x2-y2    tot
    1  0.000  0.231  0.231  0.000  0.085  0.000  0.051  0.085  0.017  0.700
 
band    10 # energy   30.59932275 # occ.  0.00000000
 
ion      s     py     pz     px    dxy    dyz    dz2    dxz  x2-y2    tot
    1  0.044  0.050  0.050  0.402  0.000  0.059  0.018  0.000  0.054  0.678
 
band    11 # energy   34.06279692 # occ.  0.00000000
 
ion      s     py     pz     px    dxy    dyz    dz2    dxz  x2-y2    tot
    1  0.001  0.002  0.002  0.012  0.057  0.120  0.105  0.057  0.315  0.670
 
band    12 # energy   35.59032093 # occ.  0.00000000
 
ion      s     py     pz     px    dxy    dyz    dz2    dxz  x2-y2    tot
    1  0.000  0.062  0.062  0.000  0.046  0.000  0.372  0.046  0.124  0.712
 

 k-point     7 :   -0.18750000 0.06250000 0.06250000     weight = 0.01171875

band     1 # energy    1.90391823 # occ.  1.00000000
 
ion      s     py     pz     px    dxy    dyz    dz2    dxz  x2-y2    tot
    1  0.482  0.018  0.018  0.054  0.016  0.008  0.001  0.016  0.003  0.616
 
band     2 # energy    5.28394238 # occ.  1.00000000
 
ion      s     py     pz     px    dxy    dyz    dz2    dxz  x2-y2    tot
    1  0.007  0.009  0.009  0.006  0.132  0.626  0.000  0.132  0.001  0.924
 
band     3 # energy    5.71968106 # occ.  1.00000000
 
ion      s     py     pz     px    dxy    dyz    dz2    dxz  x2-y2    tot
    1  0.000  0.000  0.000  0.001  0.182  0.192  0.100  0.182  0.301  0.959
 
band     4 # energy    5.76890065 # occ.  1.00000000
 
ion      s     py     pz     px    dxy    dyz    dz2    dxz  x2-y2    tot
    1  0.000  0.001  0.001  0.000  0.336  0.000  0.215  0.336  0.072  0.961
 
band     5 # energy    6.35046298 # occ.  1.00000000
 
ion      s     py     pz     px    dxy    dyz    dz2    dxz  x2-y2    tot
    1  0.005  0.001  0.001  0.004  0.141  0.116  0.140  0.141  0.420  0.968
 
band     6 # energy    6.53532017 # occ.  1.00000000
 
ion      s     py     pz     px    dxy    dyz    dz2    dxz  x2-y2    tot
    1  0.000  0.000  0.000  0.000  0.145  0.000  0.517  0.145  0.172  0.979
 
band     7 # energy   22.02124382 # occ.  0.00000000
 
ion      s     py     pz     px    dxy    dyz    dz2    dxz  x2-y2    tot
    1  0.086  0.110  0.110  0.063  0.091  0.116  0.001  0.091  0.002  0.668
 
band     8 # energy   29.09356398 # occ.  0.00000000
 
ion      s     py     pz     px    dxy    dyz    dz2    dxz  x2-y2    tot
    1  0.000  0.203  0.203  0.000  0.137  0.000  0.025  0.137  0.008  0.713
 
band     9 # energy   29.16587302 # occ.  0.00000000
 
ion      s     py     pz     px    dxy    dyz    dz2    dxz  x2-y2    tot
    1  0.031  0.001  0.001  0.028  0.000  0.168  0.011  0.000  0.034  0.275
 
band    10 # energy   33.16224445 # occ.  0.00000000
 
ion      s     py     pz     px    dxy    dyz    dz2    dxz  x2-y2    tot
    1  0.020  0.015  0.015  0.375  0.024  0.115  0.018  0.024  0.053  0.660
 
band    11 # energy   33.99712810 # occ.  0.00000000
 
ion      s     py     pz     px    dxy    dyz    dz2    dxz  x2-y2    tot
    1  0.006  0.043  0.043  0.003  0.022  0.010  0.071  0.022  0.214  0.434
 
band    12 # energy   37.58418480 # occ.  0.00000000
 
ion      s     py     pz     px    dxy    dyz    dz2    dxz  x2-y2    tot
    1  0.002  0.110  0.119  0.052  0.034  0.099  0.044  0.036  0.103  0.599
 

 k-point     8 :   -0.06250000 0.06250000 0.06250000     weight = 0.01171875

band     1 # energy    0.58787584 # occ.  1.00000000
 
ion      s     py     pz     px    dxy    dyz    dz2    dxz  x2-y2    tot
    1  0.573  0.003  0.003  0.023  0.000  0.000  0.000  0.000  0.001  0.602
 
band     2 # energy    5.44459523 # occ.  1.00000000
 
ion      s     py     pz     px    dxy    dyz    dz2    dxz  x2-y2    tot
    1  0.000  0.001  0.001  0.000  0.056  0.839  0.000  0.056  0.000  0.953
 
band     3 # energy    5.69519634 # occ.  1.00000000
 
ion      s     py     pz     px    dxy    dyz    dz2    dxz  x2-y2    tot
    1  0.000  0.001  0.001  0.000  0.417  0.114  0.003  0.417  0.009  0.961
 
band     4 # energy    5.69817933 # occ.  1.00000000
 
ion      s     py     pz     px    dxy    dyz    dz2    dxz  x2-y2    tot
    1  0.000  0.001  0.001  0.000  0.473  0.000  0.011  0.473  0.004  0.961
 
band     5 # energy    6.22646650 # occ.  1.00000000
 
ion      s     py     pz     px    dxy    dyz    dz2    dxz  x2-y2    tot
    1  0.001  0.000  0.000  0.000  0.005  0.001  0.241  0.005  0.722  0.975
 
band     6 # energy    6.37661224 # occ.  1.00000000
 
ion      s     py     pz     px    dxy    dyz    dz2    dxz  x2-y2    tot
    1  0.000  0.000  0.000  0.000  0.007  0.000  0.724  0.007  0.241  0.980
 
band     7 # energy   27.82091258 # occ.  0.00000000
 
ion      s     py     pz     px    dxy    dyz    dz2    dxz  x2-y2    tot
    1  0.012  0.070  0.070  0.024  0.075  0.165  0.000  0.075  0.001  0.492
 
band     8 # energy   30.07174610 # occ.  0.00000000
 
ion      s     py     pz     px    dxy    dyz    dz2    dxz  x2-y2    tot
    1  0.030  0.035  0.035  0.078  0.023  0.072  0.003  0.023  0.010  0.310
 
band     9 # energy   30.45406433 # occ.  0.00000000
 
ion      s     py     pz     px    dxy    dyz    dz2    dxz  x2-y2    tot
    1  0.000  0.181  0.181  0.000  0.146  0.000  0.004  0.146  0.001  0.659
 
band    10 # energy   32.53142975 # occ.  0.00000000
 
ion      s     py     pz     px    dxy    dyz    dz2    dxz  x2-y2    tot
    1  0.012  0.082  0.082  0.095  0.017  0.000  0.016  0.017  0.048  0.369
 
band    11 # energy   35.93607729 # occ.  0.00000000
 
ion      s     py     pz     px    dxy    dyz    dz2    dxz  x2-y2    tot
    1  0.000  0.002  0.002  0.076  0.165  0.330  0.003  0.165  0.010  0.756
 
band    12 # energy   37.68272063 # occ.  0.00000000
 
ion      s     py     pz     px    dxy    dyz    dz2    dxz  x2-y2    tot
    1  0.003  0.000  0.000  0.235  0.000  0.374  0.009  0.000  0.029  0.652
 

 k-point     9 :    0.18750000 0.18750000 0.06250000     weight = 0.01171875

band     1 # energy    1.27756617 # occ.  1.00000000
 
ion      s     py     pz     px    dxy    dyz    dz2    dxz  x2-y2    tot
    1  0.528  0.002  0.061  0.002  0.000  0.001  0.009  0.001  0.000  0.605
 
band     2 # energy    5.23826888 # occ.  1.00000000
 
ion      s     py     pz     px    dxy    dyz    dz2    dxz  x2-y2    tot
    1  0.000  0.001  0.000  0.001  0.906  0.018  0.000  0.018  0.000  0.944
 
band     3 # energy    5.83765363 # occ.  1.00000000
 
ion      s     py     pz     px    dxy    dyz    dz2    dxz  x2-y2    tot
    1  0.000  0.002  0.000  0.002  0.032  0.366  0.194  0.366  0.000  0.961
 
band     4 # energy    5.86762707 # occ.  1.00000000
 
ion      s     py     pz     px    dxy    dyz    dz2    dxz  x2-y2    tot
    1  0.000  0.002  0.000  0.002  0.000  0.458  0.000  0.458  0.043  0.962
 
band     5 # energy    6.10281873 # occ.  1.00000000
 
ion      s     py     pz     px    dxy    dyz    dz2    dxz  x2-y2    tot
    1  0.006  0.000  0.003  0.000  0.007  0.093  0.763  0.093  0.000  0.965
 
band     6 # energy    6.47310100 # occ.  1.00000000
 
ion      s     py     pz     px    dxy    dyz    dz2    dxz  x2-y2    tot
    1  0.000  0.000  0.000  0.000  0.000  0.021  0.000  0.021  0.938  0.981
 
band     7 # energy   26.19150059 # occ.  0.00000000
 
ion      s     py     pz     px    dxy    dyz    dz2    dxz  x2-y2    tot
    1  0.022  0.116  0.021  0.116  0.163  0.084  0.007  0.084  0.000  0.613
 
band     8 # energy   28.31644826 # occ.  0.00000000
 
ion      s     py     pz     px    dxy    dyz    dz2    dxz  x2-y2    tot
    1  0.000  0.205  0.000  0.205  0.000  0.138  0.000  0.138  0.004  0.690
 
band     9 # energy   28.83107130 # occ.  0.00000000
 
ion      s     py     pz     px    dxy    dyz    dz2    dxz  x2-y2    tot
    1  0.031  0.016  0.028  0.016  0.228  0.012  0.049  0.012  0.000  0.391
 
band    10 # energy   30.88641799 # occ.  0.00000000
 
ion      s     py     pz     px    dxy    dyz    dz2    dxz  x2-y2    tot
    1  0.008  0.061  0.001  0.061  0.040  0.031  0.174  0.031  0.000  0.406
 
band    11 # energy   34.49781079 # occ.  0.00000000
 
ion      s     py     pz     px    dxy    dyz    dz2    dxz  x2-y2    tot
    1  0.117  0.019  0.567  0.019  0.000  0.001  0.122  0.001  0.000  0.846
 
band    12 # energy   38.31577525 # occ.  0.00000000
 
ion      s     py     pz     px    dxy    dyz    dz2    dxz  x2-y2    tot
    1  0.009  0.001  0.000  0.001  0.317  0.116  0.042  0.117  0.000  0.603
 

 k-point    10 :    0.31250000 0.18750000 0.06250000     weight = 0.02343750

band     1 # energy    2.50188231 # occ.  1.00000000
 
ion      s     py     pz     px    dxy    dyz    dz2    dxz  x2-y2    tot
    1  0.427  0.018  0.100  0.002  0.002  0.027  0.045  0.004  0.000  0.625
 
band     2 # energy    5.01387159 # occ.  1.00000000
 
ion      s     py     pz     px    dxy    dyz    dz2    dxz  x2-y2    tot
    1  0.001  0.001  0.001  0.008  0.836  0.006  0.003  0.074  0.000  0.929
 
band     3 # energy    5.65304008 # occ.  1.00000000
 
ion      s     py     pz     px    dxy    dyz    dz2    dxz  x2-y2    tot
    1  0.005  0.002  0.001  0.000  0.016  0.314  0.562  0.014  0.035  0.950
 
band     4 # energy    6.05268104 # occ.  1.00000000
 
ion      s     py     pz     px    dxy    dyz    dz2    dxz  x2-y2    tot
    1  0.002  0.002  0.001  0.002  0.037  0.131  0.057  0.497  0.234  0.963
 
band     5 # energy    6.33430637 # occ.  1.00000000
 
ion      s     py     pz     px    dxy    dyz    dz2    dxz  x2-y2    tot
    1  0.011  0.002  0.008  0.002  0.040  0.093  0.212  0.362  0.230  0.960
 
band     6 # energy    6.79461380 # occ.  1.00000000
 
ion      s     py     pz     px    dxy    dyz    dz2    dxz  x2-y2    tot
    1  0.013  0.004  0.006  0.000  0.001  0.389  0.077  0.002  0.480  0.972
 
band     7 # energy   22.53676214 # occ.  0.00000000
 
ion      s     py     pz     px    dxy    dyz    dz2    dxz  x2-y2    tot
    1  0.059  0.102  0.025  0.184  0.138  0.059  0.011  0.091  0.002  0.670
 
band     8 # energy   24.97363255 # occ.  0.00000000
 
ion      s     py     pz     px    dxy    dyz    dz2    dxz  x2-y2    tot
    1  0.044  0.156  0.018  0.141  0.076  0.089  0.028  0.061  0.014  0.626
 
band     9 # energy   28.63869663 # occ.  0.00000000
 
ion      s     py     pz     px    dxy    dyz    dz2    dxz  x2-y2    tot
    1  0.012  0.032  0.117  0.017  0.020  0.008  0.297  0.009  0.002  0.514
 
band    10 # energy   30.32135476 # occ.  0.00000000
 
ion      s     py     pz     px    dxy    dyz    dz2    dxz  x2-y2    tot
    1  0.037  0.013  0.094  0.089  0.276  0.004  0.027  0.041  0.001  0.582
 
band    11 # energy   33.77025865 # occ.  0.00000000
 
ion      s     py     pz     px    dxy    dyz    dz2    dxz  x2-y2    tot
    1  0.113  0.187  0.271  0.033  0.030  0.038  0.001  0.007  0.000  0.681
 
band    12 # energy   38.21248842 # occ.  0.00000000
 
ion      s     py     pz     px    dxy    dyz    dz2    dxz  x2-y2    tot
    1  0.013  0.026  0.016  0.002  0.042  0.003  0.147  0.025  0.147  0.422
 

 k-point    11 :    0.43750000 0.18750000 0.06250000     weight = 0.02343750

band     1 # energy    3.78037516 # occ.  1.00000000
 
ion      s     py     pz     px    dxy    dyz    dz2    dxz  x2-y2    tot
    1  0.207  0.015  0.071  0.001  0.145  0.143  0.091  0.082  0.001  0.757
 
band     2 # energy    5.11009330 # occ.  1.00000000
 
ion      s     py     pz     px    dxy    dyz    dz2    dxz  x2-y2    tot
    1  0.009  0.025  0.014  0.025  0.318  0.032  0.382  0.063  0.013  0.880
 
band     3 # energy    5.44000012 # occ.  1.00000000
 
ion      s     py     pz     px    dxy    dyz    dz2    dxz  x2-y2    tot
    1  0.022  0.001  0.017  0.006  0.360  0.262  0.211  0.003  0.042  0.925
 
band     4 # energy    5.91759525 # occ.  1.00000000
 
ion      s     py     pz     px    dxy    dyz    dz2    dxz  x2-y2    tot
    1  0.002  0.003  0.004  0.001  0.041  0.066  0.050  0.274  0.517  0.958
 
band     5 # energy    6.87230598 # occ.  1.00000000
 
ion      s     py     pz     px    dxy    dyz    dz2    dxz  x2-y2    tot
    1  0.002  0.000  0.004  0.003  0.034  0.077  0.043  0.481  0.334  0.979
 
band     6 # energy    7.84914809 # occ.  1.00000000
 
ion      s     py     pz     px    dxy    dyz    dz2    dxz  x2-y2    tot
    1  0.089  0.027  0.071  0.014  0.012  0.382  0.173  0.043  0.064  0.875
 
band     7 # energy   17.16175814 # occ.  0.00000000
 
ion      s     py     pz     px    dxy    dyz    dz2    dxz  x2-y2    tot
    1  0.176  0.095  0.023  0.155  0.126  0.053  0.011  0.070  0.003  0.712
 
band     8 # energy   24.49722081 # occ.  0.00000000
 
ion      s     py     pz     px    dxy    dyz    dz2    dxz  x2-y2    tot
    1  0.026  0.122  0.001  0.191  0.071  0.051  0.061  0.039  0.049  0.610
 
band     9 # energy   26.14510686 # occ.  0.00000000
 
ion      s     py     pz     px    dxy    dyz    dz2    dxz  x2-y2    tot
    1  0.070  0.002  0.245  0.045  0.000  0.002  0.226  0.019  0.007  0.617
 
band    10 # energy   29.87327694 # occ.  0.00000000
 
ion      s     py     pz     px    dxy    dyz    dz2    dxz  x2-y2    tot
    1  0.057  0.149  0.089  0.024  0.194  0.014  0.001  0.011  0.005  0.543
 
band    11 # energy   36.10890456 # occ.  0.00000000
 
ion      s     py     pz     px    dxy    dyz    dz2    dxz  x2-y2    tot
    1  0.010  0.125  0.005  0.004  0.162  0.022  0.052  0.031  0.177  0.588
 
band    12 # energy   38.09724114 # occ.  0.00000000
 
ion      s     py     pz     px    dxy    dyz    dz2    dxz  x2-y2    tot
    1  0.059  0.080  0.092  0.070  0.017  0.006  0.209  0.005  0.023  0.562
 

 k-point    12 :   -0.43750000 0.18750000 0.06250000     weight = 0.02343750

band     1 # energy    4.07080245 # occ.  1.00000000
 
ion      s     py     pz     px    dxy    dyz    dz2    dxz  x2-y2    tot
    1  0.097  0.000  0.017  0.006  0.327  0.234  0.010  0.165  0.000  0.858
 
band     2 # energy    5.10691563 # occ.  1.00000000
 
ion      s     py     pz     px    dxy    dyz    dz2    dxz  x2-y2    tot
    1  0.000  0.017  0.001  0.007  0.033  0.079  0.684  0.012  0.075  0.908
 
band     3 # energy    5.77572873 # occ.  1.00000000
 
ion      s     py     pz     px    dxy    dyz    dz2    dxz  x2-y2    tot
    1  0.000  0.001  0.001  0.010  0.011  0.144  0.094  0.169  0.521  0.951
 
band     4 # energy    5.86170248 # occ.  1.00000000
 
ion      s     py     pz     px    dxy    dyz    dz2    dxz  x2-y2    tot
    1  0.002  0.029  0.043  0.026  0.426  0.186  0.017  0.075  0.083  0.888
 
band     5 # energy    7.02423225 # occ.  1.00000000
 
ion      s     py     pz     px    dxy    dyz    dz2    dxz  x2-y2    tot
    1  0.000  0.000  0.000  0.000  0.037  0.177  0.028  0.478  0.268  0.987
 
band     6 # energy    9.95795842 # occ.  0.00000000
 
ion      s     py     pz     px    dxy    dyz    dz2    dxz  x2-y2    tot
    1  0.017  0.114  0.162  0.111  0.041  0.098  0.130  0.016  0.016  0.704
 
band     7 # energy   13.25317581 # occ.  0.00000000
 
ion      s     py     pz     px    dxy    dyz    dz2    dxz  x2-y2    tot
    1  0.386  0.015  0.005  0.050  0.144  0.097  0.001  0.097  0.001  0.797
 
band     8 # energy   24.01965186 # occ.  0.00000000
 
ion      s     py     pz     px    dxy    dyz    dz2    dxz  x2-y2    tot