   2   2   0   0
  0.1064014E+02  0.2472000E-09  0.2472000E-09  0.4021144E-09  0.5000000E-15
  1.000000000000000E-004
  CAR 
 Co fcc                                  
     37.82603008     -0.49917856  301     10.49732442      1.00000000
     -0.499  0.0000E+00  0.0000E+00  0.0000E+00  0.0000E+00
     -0.371  0.0000E+00  0.0000E+00  0.0000E+00  0.0000E+00
     -0.244  0.0000E+00  0.0000E+00  0.0000E+00  0.0000E+00
     -0.116 -0.9306E-30 -0.2425E-30 -0.1189E-30 -0.3098E-31
      0.012 -0.1741E-25 -0.5052E-26 -0.2224E-26 -0.6454E-27
      0.140 -0.1430E-21 -0.4619E-22 -0.1826E-22 -0.5902E-23
      0.267 -0.5145E-18 -0.1851E-18 -0.6574E-19 -0.2366E-19
      0.395 -0.7837E-15 -0.3144E-15 -0.1002E-15 -0.4019E-16
      0.523 -0.5332E-12 -0.2386E-12 -0.6822E-13 -0.3052E-13
      0.651 -0.1569E-09 -0.7837E-10 -0.2011E-10 -0.1004E-10
      0.778 -0.1978E-07 -0.1104E-07 -0.2547E-08 -0.1421E-08
      0.906 -0.1051E-05 -0.6577E-06 -0.1368E-06 -0.8544E-07
      1.034 -0.2275E-04 -0.1605E-04 -0.3043E-05 -0.2136E-05
      1.162 -0.1833E-03 -0.1485E-03 -0.2646E-04 -0.2110E-04
      1.289 -0.3467E-03 -0.3688E-03 -0.7076E-04 -0.6821E-04
      1.417  0.1350E-02  0.9410E-03  0.1017E-03  0.5200E-04
      1.545  0.5926E-02  0.5272E-02  0.8588E-03  0.7254E-03
      1.673  0.1084E-01  0.1007E-01  0.2243E-02  0.2012E-02
      1.800  0.2338E-01  0.2033E-01  0.5230E-02  0.4609E-02
      1.928  0.5561E-01  0.4989E-01  0.1233E-01  0.1098E-01
      2.056  0.7690E-01  0.7665E-01  0.2216E-01  0.2077E-01
      2.184  0.4353E-01  0.5120E-01  0.2772E-01  0.2731E-01
      2.311  0.1053E-01  0.1101E-01  0.2906E-01  0.2872E-01
      2.439  0.4723E-01  0.3574E-01  0.3510E-01  0.3329E-01
      2.567  0.9569E-01  0.8945E-01  0.4732E-01  0.4471E-01
      2.695  0.9289E-01  0.9506E-01  0.5919E-01  0.5686E-01
      2.822  0.7335E-01  0.7444E-01  0.6856E-01  0.6637E-01
      2.950  0.8249E-01  0.7187E-01  0.7910E-01  0.7555E-01
      3.078  0.1296E+00  0.1127E+00  0.9566E-01  0.8994E-01
      3.206  0.1394E+00  0.1437E+00  0.1135E+00  0.1083E+00
      3.333  0.8871E-01  0.1020E+00  0.1248E+00  0.1213E+00
      3.461  0.5477E-01  0.6194E-01  0.1318E+00  0.1292E+00
      3.589  0.2636E-01  0.3751E-01  0.1352E+00  0.1340E+00
      3.717  0.7269E-01  0.2804E-01  0.1444E+00  0.1376E+00
      3.844  0.1966E+00  0.1248E+00  0.1696E+00  0.1536E+00
      3.972  0.2283E+00  0.2153E+00  0.1987E+00  0.1811E+00
      4.100  0.1928E+00  0.1960E+00  0.2234E+00  0.2061E+00
      4.228  0.1952E+00  0.1610E+00  0.2483E+00  0.2267E+00
      4.355  0.1732E+00  0.1708E+00  0.2704E+00  0.2485E+00
      4.483  0.1027E+00  0.1604E+00  0.2835E+00  0.2690E+00
      4.611  0.1434E+00  0.8935E-01  0.3019E+00  0.2804E+00
      4.739  0.2331E+00  0.8550E-01  0.3316E+00  0.2913E+00
      4.866  0.2241E+00  0.1821E+00  0.3603E+00  0.3146E+00
      4.994  0.1869E+00  0.2285E+00  0.3841E+00  0.3438E+00
      5.122  0.3177E+00  0.1539E+00  0.4247E+00  0.3634E+00
      5.250  0.6488E+00  0.1382E+00  0.5076E+00  0.3811E+00
      5.377  0.9923E+00  0.2156E+00  0.6344E+00  0.4086E+00
      5.505  0.1051E+01  0.2723E+00  0.7687E+00  0.4434E+00
      5.633  0.8423E+00  0.3416E+00  0.8763E+00  0.4871E+00
      5.761  0.9603E+00  0.3610E+00  0.9989E+00  0.5332E+00
      5.888  0.1668E+01  0.3552E+00  0.1212E+01  0.5786E+00
      6.016  0.1824E+01  0.4551E+00  0.1445E+01  0.6367E+00
      6.144  0.1508E+01  0.3108E+00  0.1638E+01  0.6764E+00
      6.272  0.1698E+01  0.1509E+00  0.1855E+01  0.6957E+00
      6.399  0.1802E+01  0.5453E+00  0.2085E+01  0.7654E+00
      6.527  0.1496E+01  0.1071E+01  0.2276E+01  0.9022E+00
      6.655  0.1514E+01  0.1028E+01  0.2469E+01  0.1033E+01
      6.783  0.1832E+01  0.7760E+00  0.2703E+01  0.1133E+01
      6.910  0.2043E+01  0.7969E+00  0.2964E+01  0.1234E+01
      7.038  0.2113E+01  0.1068E+01  0.3234E+01  0.1371E+01
      7.166  0.1997E+01  0.1140E+01  0.3489E+01  0.1517E+01
      7.294  0.1618E+01  0.9830E+00  0.3696E+01  0.1642E+01
      7.421  0.1273E+01  0.1327E+01  0.3859E+01  0.1812E+01
      7.549  0.1626E+01  0.1643E+01  0.4066E+01  0.2022E+01
      7.677  0.2482E+01  0.1281E+01  0.4383E+01  0.2185E+01
      7.805  0.2802E+01  0.1041E+01  0.4741E+01  0.2318E+01
      7.932  0.2773E+01  0.1271E+01  0.5096E+01  0.2481E+01
      8.060  0.2855E+01  0.1599E+01  0.5460E+01  0.2685E+01
      8.188  0.2911E+01  0.1712E+01  0.5832E+01  0.2903E+01
      8.316  0.3052E+01  0.1870E+01  0.6222E+01  0.3142E+01
      8.443  0.2909E+01  0.2013E+01  0.6594E+01  0.3400E+01
      8.571  0.2437E+01  0.1670E+01  0.6905E+01  0.3613E+01
      8.699  0.1988E+01  0.1081E+01  0.7159E+01  0.3751E+01
      8.827  0.1792E+01  0.7813E+00  0.7388E+01  0.3851E+01
      8.954  0.1605E+01  0.9582E+00  0.7593E+01  0.3973E+01
      9.082  0.1526E+01  0.1432E+01  0.7788E+01  0.4156E+01
      9.210  0.2026E+01  0.2043E+01  0.8047E+01  0.4417E+01
      9.338  0.2190E+01  0.2532E+01  0.8327E+01  0.4741E+01
      9.465  0.1905E+01  0.2545E+01  0.8570E+01  0.5066E+01
      9.593  0.2436E+01  0.2304E+01  0.8881E+01  0.5360E+01
      9.721  0.3748E+01  0.2438E+01  0.9360E+01  0.5671E+01
      9.849  0.4317E+01  0.2713E+01  0.9911E+01  0.6018E+01
      9.976  0.2962E+01  0.2728E+01  0.1029E+02  0.6367E+01
     10.104  0.1081E+01  0.2371E+01  0.1043E+02  0.6669E+01
     10.232  0.5361E+00  0.1892E+01  0.1050E+02  0.6911E+01
     10.360  0.7041E+00  0.1638E+01  0.1059E+02  0.7120E+01
     10.487  0.5593E+00  0.1591E+01  0.1066E+02  0.7324E+01
     10.615  0.2474E+00  0.1368E+01  0.1069E+02  0.7498E+01
     10.743  0.5350E-01  0.1264E+01  0.1070E+02  0.7660E+01
     10.871 -0.2277E-01  0.1275E+01  0.1069E+02  0.7823E+01
     10.998  0.1948E-01  0.1621E+01  0.1070E+02  0.8030E+01
     11.126  0.2430E+00  0.1862E+01  0.1073E+02  0.8268E+01
     11.254  0.4105E+00  0.1514E+01  0.1078E+02  0.8461E+01
     11.382  0.2767E+00  0.1597E+01  0.1081E+02  0.8665E+01
     11.509  0.2038E+00  0.2311E+01  0.1084E+02  0.8961E+01
     11.637  0.4386E+00  0.3375E+01  0.1090E+02  0.9392E+01
     11.765  0.5850E+00  0.4012E+01  0.1097E+02  0.9904E+01
     11.893  0.4284E+00  0.3336E+01  0.1103E+02  0.1033E+02
     12.020  0.2166E+00  0.1919E+01  0.1105E+02  0.1058E+02
     12.148  0.9070E-01  0.7812E+00  0.1107E+02  0.1068E+02
     12.276  0.2168E+00  0.2284E+00  0.1109E+02  0.1070E+02
     12.404  0.3785E+00  0.1965E+00  0.1114E+02  0.1073E+02
     12.531  0.4058E+00  0.3086E+00  0.1119E+02  0.1077E+02
     12.659  0.2540E+00  0.2794E+00  0.1123E+02  0.1080E+02
     12.787  0.7436E-01  0.3055E+00  0.1124E+02  0.1084E+02
     12.915  0.1686E+00  0.4727E+00  0.1126E+02  0.1090E+02
     13.042  0.2430E+00  0.5294E+00  0.1129E+02  0.1097E+02
     13.170  0.9669E-01  0.3917E+00  0.1130E+02  0.1102E+02
     13.298  0.6301E-01  0.3137E+00  0.1131E+02  0.1106E+02
     13.426  0.1871E+00  0.4436E+00  0.1133E+02  0.1112E+02
     13.553  0.2007E+00  0.4701E+00  0.1136E+02  0.1118E+02
     13.681  0.1276E+00  0.2885E+00  0.1137E+02  0.1122E+02
     13.809  0.2344E+00  0.1510E+00  0.1140E+02  0.1123E+02
     13.937  0.4101E+00  0.1529E+00  0.1146E+02  0.1125E+02
     14.064  0.4600E+00  0.2552E+00  0.1152E+02  0.1129E+02
     14.192  0.3615E+00  0.2419E+00  0.1156E+02  0.1132E+02
     14.320  0.2336E+00  0.1675E+00  0.1159E+02  0.1134E+02
     14.448  0.1465E+00  0.1265E+00  0.1161E+02  0.1136E+02
     14.575  0.1107E+00  0.1046E+00  0.1162E+02  0.1137E+02
     14.703  0.2538E+00  0.2076E+00  0.1166E+02  0.1140E+02
     14.831  0.3519E+00  0.4559E+00  0.1170E+02  0.1145E+02
     14.959  0.2317E+00  0.5097E+00  0.1173E+02  0.1152E+02
     15.086  0.8210E-01  0.4036E+00  0.1174E+02  0.1157E+02
     15.214  0.4868E-01  0.2758E+00  0.1175E+02  0.1161E+02
     15.342  0.1681E+00  0.1069E+00  0.1177E+02  0.1162E+02
     15.470  0.2583E+00  0.8557E-01  0.1180E+02  0.1163E+02
     15.597  0.2166E+00  0.2287E+00  0.1183E+02  0.1166E+02
     15.725  0.1838E+00  0.3307E+00  0.1185E+02  0.1170E+02
     15.853  0.8986E-01  0.2248E+00  0.1186E+02  0.1173E+02
     15.981  0.3179E-01  0.1331E+00  0.1187E+02  0.1175E+02
     16.108  0.8840E-01  0.2418E+00  0.1188E+02  0.1178E+02
     16.236  0.9065E-01  0.2571E+00  0.1189E+02  0.1181E+02
     16.364  0.2162E-01  0.1515E+00  0.1189E+02  0.1183E+02
     16.492  0.4220E-02  0.1631E+00  0.1190E+02  0.1185E+02
     16.619  0.8940E-01  0.1193E+00  0.1191E+02  0.1187E+02
     16.747  0.2228E+00  0.7116E-01  0.1194E+02  0.1188E+02
     16.875  0.2468E+00  0.8056E-01  0.1197E+02  0.1189E+02
     17.003  0.1527E+00  0.5357E-01  0.1199E+02  0.1189E+02
     17.130  0.9948E-01  0.2561E-01  0.1200E+02  0.1190E+02
     17.258  0.1345E+00  0.8372E-01  0.1202E+02  0.1191E+02
     17.386  0.1525E+00  0.1902E+00  0.1204E+02  0.1193E+02
     17.514  0.1580E+00  0.2125E+00  0.1206E+02  0.1196E+02
     17.641  0.1955E+00  0.1351E+00  0.1208E+02  0.1198E+02
     17.769  0.1259E+00  0.6838E-01  0.1210E+02  0.1198E+02
     17.897  0.4959E-01  0.6570E-01  0.1210E+02  0.1199E+02
     18.025  0.1268E+00  0.1301E+00  0.1212E+02  0.1201E+02
     18.152  0.2882E+00  0.2048E+00  0.1216E+02  0.1204E+02
     18.280  0.4294E+00  0.2380E+00  0.1221E+02  0.1207E+02
     18.408  0.4114E+00  0.1977E+00  0.1226E+02  0.1209E+02
     18.536  0.3694E+00  0.6482E-01  0.1231E+02  0.1210E+02
     18.663  0.3023E+00  0.9087E-02  0.1235E+02  0.1210E+02
     18.791  0.2042E+00  0.8352E-01  0.1238E+02  0.1211E+02
     18.919  0.3468E+00  0.1653E+00  0.1242E+02  0.1213E+02
     19.047  0.4899E+00  0.3227E+00  0.1248E+02  0.1217E+02
     19.174  0.4418E+00  0.5266E+00  0.1254E+02  0.1224E+02
     19.302  0.4129E+00  0.4410E+00  0.1259E+02  0.1230E+02
     19.430  0.3426E+00  0.3258E+00  0.1264E+02  0.1234E+02
     19.558  0.2123E+00  0.3723E+00  0.1266E+02  0.1239E+02
     19.685  0.1830E+00  0.4804E+00  0.1269E+02  0.1245E+02
     19.813  0.2499E+00  0.5436E+00  0.1272E+02  0.1252E+02
     19.941  0.3401E+00  0.4438E+00  0.1276E+02  0.1257E+02
     20.069  0.3937E+00  0.3037E+00  0.1281E+02  0.1261E+02
     20.196  0.3683E+00  0.2679E+00  0.1286E+02  0.1265E+02
     20.324  0.3536E+00  0.2959E+00  0.1290E+02  0.1268E+02
     20.452  0.2308E+00  0.3507E+00  0.1293E+02  0.1273E+02
     20.580  0.1329E+00  0.3782E+00  0.1295E+02  0.1278E+02
     20.707  0.3277E+00  0.3476E+00  0.1299E+02  0.1282E+02
     20.835  0.5365E+00  0.3038E+00  0.1306E+02  0.1286E+02
     20.963  0.4969E+00  0.3247E+00  0.1312E+02  0.1290E+02
     21.091  0.3181E+00  0.2326E+00  0.1316E+02  0.1293E+02
     21.218  0.4146E+00  0.1865E+00  0.1322E+02  0.1296E+02
     21.346  0.5824E+00  0.4914E+00  0.1329E+02  0.1302E+02
     21.474  0.5192E+00  0.6729E+00  0.1336E+02  0.1310E+02
     21.602  0.4409E+00  0.4906E+00  0.1341E+02  0.1317E+02
     21.729  0.2708E+00  0.3914E+00  0.1345E+02  0.1322E+02
     21.857  0.1298E+00  0.4662E+00  0.1347E+02  0.1328E+02
     21.985  0.1586E+00  0.4428E+00  0.1349E+02  0.1333E+02
     22.113  0.2435E+00  0.4421E+00  0.1352E+02  0.1339E+02
     22.240  0.3142E+00  0.3814E+00  0.1356E+02  0.1344E+02
     22.368  0.3988E+00  0.2336E+00  0.1361E+02  0.1347E+02
     22.496  0.5293E+00  0.2182E+00  0.1368E+02  0.1350E+02
     22.624  0.4792E+00  0.2351E+00  0.1374E+02  0.1353E+02
     22.751  0.2274E+00  0.2612E+00  0.1377E+02  0.1356E+02
     22.879  0.1698E+00  0.4251E+00  0.1379E+02  0.1361E+02
     23.007  0.2018E+00  0.5685E+00  0.1381E+02  0.1369E+02
     23.135  0.1330E+00  0.4214E+00  0.1383E+02  0.1374E+02
     23.262  0.2161E+00  0.1906E+00  0.1386E+02  0.1376E+02
     23.390  0.3169E+00  0.1958E+00  0.1390E+02  0.1379E+02
     23.518  0.3338E+00  0.2149E+00  0.1394E+02  0.1382E+02
     23.646  0.4088E+00  0.1363E+00  0.1399E+02  0.1383E+02
     23.773  0.3051E+00  0.2082E+00  0.1403E+02  0.1386E+02
     23.901  0.1359E+00  0.3765E+00  0.1405E+02  0.1391E+02
     24.029  0.2456E+00  0.4405E+00  0.1408E+02  0.1397E+02
     24.157  0.3733E+00  0.3793E+00  0.1413E+02  0.1401E+02
     24.284  0.2658E+00  0.1946E+00  0.1416E+02  0.1404E+02
     24.412  0.3384E+00  0.1205E+00  0.1421E+02  0.1405E+02
     24.540  0.5414E+00  0.2952E+00  0.1428E+02  0.1409E+02
     24.668  0.5039E+00  0.4027E+00  0.1434E+02  0.1414E+02
     24.795  0.3784E+00  0.3680E+00  0.1439E+02  0.1419E+02
     24.923  0.2454E+00  0.4542E+00  0.1442E+02  0.1425E+02
     25.051  0.1179E+00  0.5081E+00  0.1443E+02  0.1431E+02
     25.179  0.1839E+00  0.4093E+00  0.1446E+02  0.1437E+02
     25.306  0.3786E+00  0.3042E+00  0.1451E+02  0.1440E+02
     25.434  0.4213E+00  0.1778E+00  0.1456E+02  0.1443E+02
     25.562  0.3277E+00  0.1310E+00  0.1460E+02  0.1444E+02
     25.690  0.3462E+00  0.3253E+00  0.1465E+02  0.1449E+02
     25.817  0.3924E+00  0.4507E+00  0.1470E+02  0.1454E+02
     25.945  0.2646E+00  0.3725E+00  0.1473E+02  0.1459E+02
     26.073  0.2453E+00  0.3515E+00  0.1476E+02  0.1464E+02
     26.201  0.4505E+00  0.3761E+00  0.1482E+02  0.1468E+02
     26.328  0.5077E+00  0.3306E+00  0.1488E+02  0.1473E+02
     26.456  0.3714E+00  0.3189E+00  0.1493E+02  0.1477E+02
     26.584  0.2917E+00  0.4503E+00  0.1497E+02  0.1482E+02
     26.712  0.4042E+00  0.5206E+00  0.1502E+02  0.1489E+02
     26.839  0.4521E+00  0.4005E+00  0.1508E+02  0.1494E+02
     26.967  0.2322E+00  0.2963E+00  0.1511E+02  0.1498E+02
     27.095  0.1526E+00  0.3990E+00  0.1513E+02  0.1503E+02
     27.223  0.2319E+00  0.4443E+00  0.1516E+02  0.1509E+02
     27.350  0.2273E+00  0.2386E+00  0.1519E+02  0.1512E+02
     27.478  0.1267E+00  0.1665E+00  0.1520E+02  0.1514E+02
     27.606  0.7710E-01  0.2191E+00  0.1521E+02  0.1517E+02
     27.734  0.2358E+00  0.1920E+00  0.1524E+02  0.1519E+02
     27.861  0.4174E+00  0.1000E+00  0.1530E+02  0.1520E+02
     27.989  0.3726E+00  0.1316E+00  0.1534E+02  0.1522E+02
     28.117  0.1981E+00  0.3334E+00  0.1537E+02  0.1526E+02
     28.245  0.1718E+00  0.4478E+00  0.1539E+02  0.1532E+02
     28.372  0.2130E+00  0.3377E+00  0.1542E+02  0.1536E+02
     28.500  0.2146E+00  0.2040E+00  0.1544E+02  0.1539E+02
     28.628  0.2248E+00  0.1597E+00  0.1547E+02  0.1541E+02
     28.756  0.2056E+00  0.1658E+00  0.1550E+02  0.1543E+02
     28.883  0.1799E+00  0.2338E+00  0.1552E+02  0.1546E+02
     29.011  0.1547E+00  0.2837E+00  0.1554E+02  0.1550E+02
     29.139  0.9394E-01  0.2009E+00  0.1555E+02  0.1552E+02
     29.267  0.9599E-01  0.1066E+00  0.1557E+02  0.1554E+02
     29.394  0.1703E+00  0.1068E+00  0.1559E+02  0.1555E+02
     29.522  0.1824E+00  0.1505E+00  0.1561E+02  0.1557E+02
     29.650  0.1545E+00  0.1798E+00  0.1563E+02  0.1559E+02
     29.778  0.1681E+00  0.1359E+00  0.1565E+02  0.1561E+02
     29.905  0.2189E+00  0.1186E+00  0.1568E+02  0.1563E+02
     30.033  0.1751E+00  0.2196E+00  0.1570E+02  0.1565E+02
     30.161  0.9961E-01  0.2449E+00  0.1572E+02  0.1568E+02
     30.289  0.1254E+00  0.1462E+00  0.1573E+02  0.1570E+02
     30.416  0.1103E+00  0.1051E+00  0.1575E+02  0.1572E+02
     30.544  0.5604E-01  0.1495E+00  0.1575E+02  0.1574E+02
     30.672  0.5963E-01  0.1422E+00  0.1576E+02  0.1575E+02
     30.800  0.8677E-01  0.6577E-01  0.1577E+02  0.1576E+02
     30.927  0.1062E+00  0.2433E-01  0.1579E+02  0.1577E+02
     31.055  0.9148E-01  0.7340E-01  0.1580E+02  0.1578E+02
     31.183  0.1056E+00  0.1283E+00  0.1581E+02  0.1579E+02
     31.311  0.8652E-01  0.1343E+00  0.1582E+02  0.1581E+02
     31.438  0.1930E-01  0.9529E-01  0.1582E+02  0.1582E+02
     31.566  0.4306E-03  0.3560E-01  0.1582E+02  0.1583E+02
     31.694  0.3117E-01  0.2105E-01  0.1583E+02  0.1583E+02
     31.822  0.8414E-01  0.4887E-01  0.1584E+02  0.1583E+02
     31.949  0.1373E+00  0.5213E-01  0.1586E+02  0.1584E+02
     32.077  0.1301E+00  0.8814E-01  0.1587E+02  0.1585E+02
     32.205  0.4621E-01  0.1302E+00  0.1588E+02  0.1587E+02
     32.333  0.1360E-03  0.8120E-01  0.1588E+02  0.1588E+02
     32.461  0.3103E-01  0.5603E-01  0.1588E+02  0.1589E+02
     32.588  0.6034E-01  0.6354E-01  0.1589E+02  0.1589E+02
     32.716  0.3566E-01  0.2360E-01  0.1590E+02  0.1590E+02
     32.844  0.2834E-01 -0.3588E-02  0.1590E+02  0.1590E+02
     32.972  0.9972E-01  0.2318E-01  0.1591E+02  0.1590E+02
     33.099  0.1970E+00  0.9840E-01  0.1594E+02  0.1591E+02
     33.227  0.1613E+00  0.1653E+00  0.1596E+02  0.1593E+02
     33.355  0.5253E-01  0.1590E+00  0.1596E+02  0.1595E+02
     33.483  0.4575E-01  0.1147E+00  0.1597E+02  0.1597E+02
     33.610  0.6147E-01  0.7120E-01  0.1598E+02  0.1598E+02
     33.738  0.2042E-01  0.2372E-01  0.1598E+02  0.1598E+02
     33.866 -0.3019E-02  0.6377E-02  0.1598E+02  0.1598E+02
     33.994  0.1949E-02  0.5478E-02  0.1598E+02  0.1598E+02
     34.121  0.9471E-02  0.6044E-03  0.1598E+02  0.1598E+02
     34.249  0.5906E-02 -0.2090E-02  0.1598E+02  0.1598E+02
     34.377 -0.8825E-03  0.1315E-02  0.1598E+02  0.1598E+02
     34.505  0.6858E-02  0.2167E-01  0.1598E+02  0.1599E+02
     34.632  0.2912E-01  0.3879E-01  0.1599E+02  0.1599E+02
     34.760  0.3570E-01  0.2718E-01  0.1599E+02  0.1599E+02
     34.888  0.2232E-01  0.1031E-01  0.1599E+02  0.1599E+02
     35.016  0.6825E-02  0.1196E-02  0.1600E+02  0.1600E+02
     35.143 -0.6773E-03 -0.1214E-02  0.1600E+02  0.1599E+02
     35.271 -0.1604E-02  0.1593E-02  0.1599E+02  0.1600E+02
     35.399  0.1388E-02  0.8276E-02  0.1600E+02  0.1600E+02
     35.527  0.1371E-01  0.8211E-02  0.1600E+02  0.1600E+02
     35.654  0.1930E-01  0.3953E-02  0.1600E+02  0.1600E+02
     35.782  0.7072E-02  0.7494E-02  0.1600E+02  0.1600E+02
     35.910 -0.6302E-03  0.8199E-02  0.1600E+02  0.1600E+02
     36.038 -0.5745E-03  0.2401E-02  0.1600E+02  0.1600E+02
     36.165 -0.7197E-04 -0.3473E-03  0.1600E+02  0.1600E+02
     36.293 -0.3196E-05 -0.2159E-03  0.1600E+02  0.1600E+02
     36.421 -0.5720E-07 -0.2579E-04  0.1600E+02  0.1600E+02
     36.549 -0.4307E-09 -0.1144E-05  0.1600E+02  0.1600E+02
     36.676 -0.1391E-11 -0.2089E-07  0.1600E+02  0.1600E+02
     36.804 -0.1947E-14 -0.1623E-09  0.1600E+02  0.1600E+02
     36.932  0.0000E+00 -0.5445E-12  0.1600E+02  0.1600E+02
     37.060  0.0000E+00 -0.7952E-15  0.1600E+02  0.1600E+02
     37.187  0.0000E+00  0.0000E+00  0.1600E+02  0.1600E+02
     37.315  0.0000E+00  0.0000E+00  0.1600E+02  0.1600E+02
     37.443  0.0000E+00  0.0000E+00  0.1600E+02  0.1600E+02
     37.571  0.0000E+00  0.0000E+00  0.1600E+02  0.1600E+02
     37.698  0.0000E+00  0.0000E+00  0.1600E+02  0.1600E+02
     37.826  0.0000E+00  0.0000E+00  0.1600E+02  0.1600E+02
