    2    2    1    2
  0.1064014E+02  0.2472000E-09  0.2472000E-09  0.4021144E-09  0.5000000E-15
  1.000000000000000E-004
  CAR 
 Co fcc                                  
     18     70     16
 
  0.0000000E+00  0.0000000E+00  0.0000000E+00  0.1250000E-02
      1          1.500821        1.517497   1.000000   1.000000
      2          5.285224        6.257992   1.000000   1.000000
      3          7.833325        9.505331   1.000000   1.000000
      4          7.891297        9.575482   1.000000   1.000000
      5          7.891298        9.575482   1.000000   1.000000
      6          8.205281        9.943846   1.000000   1.000323
      7          8.205282        9.943846   1.000000   1.000323
      8          8.581992       10.330359   1.000000   0.998428
      9          8.581992       10.402393   1.000000   0.855862
     10          9.690537       10.402394   1.000000   0.855860
     11          9.690537       11.629502   1.000000  -0.000000
     12         10.374238       11.629503   0.926819  -0.000000
     13         16.952434       18.011306   0.000000   0.000000
     14         32.755747       32.492266   0.000000   0.000000
     15         35.550734       35.749120   0.000000   0.000000
     16         35.556278       35.826030   0.000000   0.000000
 
  0.1000000E+00 -0.6938894E-17  0.0000000E+00  0.7500000E-02
      1          1.856364        1.874650   1.000000   1.000000
      2          5.497106        6.499985   1.000000   1.000000
      3          7.587348        9.208923   1.000000   1.000000
      4          8.058727        9.476567   1.000000   1.000000
      5          8.067552        9.759789   1.000000   1.000001
      6          8.156592        9.771441   1.000000   1.000002
      7          8.311597        9.872999   1.000000   1.000047
      8          8.353863       10.107349   1.000000   1.009368
      9          8.479865       10.282987   1.000000   1.031056
     10          8.766144       10.307088   1.000000   1.019291
     11          9.732215       11.679127   1.000000  -0.000000
     12         11.806281       12.792423  -0.000000  -0.000000
     13         17.013979       18.038876   0.000000   0.000000
     14         30.233017       30.412183   0.000000   0.000000
     15         32.874694       33.155900   0.000000   0.000000
     16         33.095313       33.226025   0.000000   0.000000
 
  0.2000000E+00 -0.1387779E-16  0.0000000E+00  0.7500000E-02
      1          2.862839        2.896926   1.000000   1.000000
      2          5.955928        7.062055   1.000000   1.000000
      3          7.275130        8.485975   1.000000   1.000000
      4          7.353053        8.781195   1.000000   1.000000
      5          7.914381        9.557351   1.000000   1.000000
      6          8.245107       10.010832   1.000000   1.001557
      7          8.437271       10.071650   1.000000   1.005167
      8          8.512287       10.248220   1.000000   1.035393
      9          8.517692       10.268965   1.000000   1.034274
     10          8.757417       10.553051   1.000000   0.274043
     11          9.810188       11.770608   1.000007  -0.000000
     12         13.827699       14.686068  -0.000000  -0.000000
     13         17.240125       18.156953   0.000000   0.000000
     14         25.590269       26.002654   0.000000   0.000000
     15         30.057711       30.377273   0.000000   0.000000
     16         31.941531       32.091647   0.000000   0.000000
 
  0.3000000E+00  0.2775558E-16  0.0000000E+00  0.7500000E-02
      1          4.262635        4.398971   1.000000   1.000000
      2          6.081755        7.351897   1.000000   1.000000
      3          6.580180        7.772953   1.000000   1.000000
      4          7.255034        8.536603   1.000000   1.000000
      5          7.921777        9.501082   1.000000   1.000000
      6          7.993446        9.721269   1.000000   1.000000
      7          8.196626        9.787580   1.000000   1.000003
      8          9.129577       10.922801   1.000000  -0.005185
      9          9.190552       10.959163   1.000000  -0.002602
     10          9.293551       11.148670   1.000000  -0.000021
     11          9.870511       11.840101   1.000043  -0.000000
     12         16.118562       16.858825   0.000000   0.000000
     13         17.595150       18.324414   0.000000   0.000000
     14         21.424643       22.010695   0.000000   0.000000
     15         27.765544       28.028887   0.000000   0.000000
     16         28.878170       29.114142   0.000000   0.000000
 
  0.4000000E+00  0.5551115E-16  0.0000000E+00  0.7500000E-02
      1          5.349226        5.900132   1.000000   1.000000
      2          5.860067        7.137487   1.000000   1.000000
      3          6.115445        7.353865   1.000000   1.000000
      4          7.636288        8.554725   1.000000   1.000000
      5          7.809125        9.510228   1.000000   1.000000
      6          8.013704        9.561541   1.000000   1.000000
      7          8.177952        9.769026   1.000000   1.000002
      8          9.650777       11.558200   1.000000  -0.000000
      9          9.784137       11.701598   1.000003  -0.000000
     10          9.902143       11.875977   1.000107  -0.000000
     11         10.404507       11.988405   0.849740  -0.000000
     12         16.189320       16.932092   0.000000   0.000000
     13         18.578264       19.178415   0.000000   0.000000
     14         20.128666       20.704860   0.000000   0.000000
     15         25.459152       25.871264   0.000000   0.000000
     16         26.218820       26.415110   0.000000   0.000000
 
  0.5000000E+00  0.5551115E-16  0.0000000E+00  0.3750000E-02
      1          5.666753        6.610337   1.000000   1.000000
      2          5.708207        6.902808   1.000000   1.000000
      3          5.961415        7.216889   1.000000   1.000000
      4          7.742075        8.685722   1.000000   1.000000
      5          7.945286        9.433633   1.000000   1.000000
      6          7.985099        9.475982   1.000000   1.000000
      7          8.289699        9.898697   1.000000   1.000097
      8          9.848366       11.784493   1.000022  -0.000000
      9          9.911342       11.886311   1.000137  -0.000000
     10          9.996959       11.949026   1.001149  -0.000000
     11         11.881071       13.155644  -0.000000  -0.000000
     12         13.949076       14.957057  -0.000000  -0.000000
     13         20.324178       20.770587   0.000000   0.000000
     14         21.003323       21.418954   0.000000   0.000000
     15         23.400100       23.979647   0.000000   0.000000
     16         24.699563       25.292838   0.000000   0.000000
 
  0.1000000E+00  0.1000000E+00  0.0000000E+00  0.7500000E-02
      1          2.540392        2.566112   1.000000   1.000000
      2          5.851893        6.916743   1.000000   1.000000
      3          7.310970        8.742836   1.000000   1.000000
      4          7.640248        8.865135   1.000000   1.000000
      5          7.997609        9.663942   1.000000   1.000000
      6          8.196750        9.942409   1.000000   1.000311
      7          8.281015       10.010073   1.000000   1.001532
      8          8.400191       10.133408   1.000000   1.013690
      9          8.601642       10.287494   1.000000   1.029505
     10          8.689102       10.467402   1.000000   0.625054
     11          9.772920       11.726583   1.000002  -0.000000
     12         13.261610       14.154310  -0.000000  -0.000000
     13         17.164213       18.118356   0.000000   0.000000
     14         27.762569       28.055875   0.000000   0.000000
     15         28.448989       28.832451   0.000000   0.000000
     16         34.614706       34.540022   0.000000   0.000000
 
  0.2000000E+00  0.1000000E+00  0.0000000E+00  0.1500000E-01
      1          3.775458        3.844942   1.000000   1.000000
      2          6.231562        7.429135   1.000000   1.000000
      3          6.864276        8.030712   1.000000   1.000000
      4          7.030840        8.450491   1.000000   1.000000
      5          7.900216        9.500557   1.000000   1.000000
      6          7.921652        9.605108   1.000000   1.000000
      7          8.406570       10.075437   1.000000   1.005525
      8          8.634309       10.395845   1.000000   0.874135
      9          8.985429       10.780361   1.000000  -0.031204
     10          9.303931       11.105397   1.000000  -0.000074
     11          9.814169       11.774444   1.000008  -0.000000
     12         15.300311       16.091512  -0.000000   0.000000
     13         17.546619       18.353919   0.000000   0.000000
     14         23.511432       23.989885   0.000000   0.000000
     15         26.152220       26.524832   0.000000   0.000000
     16         30.906811       31.023099   0.000000   0.000000
 
  0.3000000E+00  0.1000000E+00  0.0000000E+00  0.1500000E-01
      1          5.116101        5.411893   1.000000   1.000000
      2          6.111017        7.410130   1.000000   1.000000
      3          6.312799        7.541371   1.000000   1.000000
      4          7.182146        8.348694   1.000000   1.000000
      5          7.743861        9.385663   1.000000   1.000000
      6          8.066514        9.648441   1.000000   1.000000
      7          8.149444        9.767988   1.000000   1.000002
      8          9.200786       11.006405   1.000000  -0.000943
      9          9.559496       11.432265   1.000000  -0.000000
     10          9.841969       11.806258   1.000018  -0.000000
     11         10.189362       11.922239   1.025847  -0.000000
     12         17.612660       18.254979   0.000000   0.000000
     13         17.653741       18.328354   0.000000   0.000000
     14         20.238108       20.863403   0.000000   0.000000
     15         24.556536       24.901329   0.000000   0.000000
     16         27.278674       27.586928   0.000000   0.000000
 
  0.4000000E+00  0.1000000E+00  0.0000000E+00  0.1500000E-01
      1          5.752393        6.582481   1.000000   1.000000
      2          5.902204        7.137388   1.000000   1.000000
      3          6.034607        7.300087   1.000000   1.000000
      4          7.638344        8.467248   1.000000   1.000000
      5          7.688412        9.335834   1.000000   1.000000
      6          7.945438        9.500708   1.000000   1.000000
      7          8.284654        9.898983   1.000000   1.000098
      8          9.731933       11.627127   1.000000  -0.000000
      9          9.853488       11.782316   1.000026  -0.000000
     10          9.859837       11.819147   1.000032  -0.000000
     11         11.676896       13.038625  -0.000000  -0.000000
     12         15.023749       15.910338  -0.000000  -0.000000
     13         20.055308       20.577084   0.000000   0.000000
     14         20.864869       21.333202   0.000000   0.000000
     15         23.521848       23.857344   0.000000   0.000000
     16         24.241960       24.740046   0.000000   0.000000
 
  0.2000000E+00  0.2000000E+00  0.0000000E+00  0.7500000E-02
      1          5.048863        5.237966   1.000000   1.000000
      2          6.440359        7.664752   1.000000   1.000000
      3          6.512969        7.768945   1.000000   1.000000
      4          6.680742        8.017807   1.000000   1.000000
      5          7.643364        9.268829   1.000000   1.000000
      6          8.031338        9.611619   1.000000   1.000000
      7          8.246401        9.882705   1.000000   1.000062
      8          8.838708       10.634982   1.000000   0.044283
      9          9.562789       11.426082   1.000000  -0.000000
     10          9.783333       11.738762   1.000003  -0.000000
     11         10.226257       11.960899   1.033272  -0.000000
     12         17.346552       18.054225   0.000000   0.000000
     13         18.192439       18.840322   0.000000   0.000000
     14         21.603774       22.117868   0.000000   0.000000
     15         22.216865       22.698401   0.000000   0.000000
     16         29.301910       29.389018   0.000000   0.000000
 
  0.3000000E+00  0.2000000E+00  0.0000000E+00  0.1500000E-01
      1          6.020798        6.615196   1.000000   1.000000
      2          6.172484        7.457155   1.000000   1.000000
      3          6.308280        7.576728   1.000000   1.000000
      4          6.936201        8.030185   1.000000   1.000000
      5          7.549770        9.137665   1.000000   1.000000
      6          7.981884        9.562128   1.000000   1.000000
      7          8.284492        9.899479   1.000000   1.000099
      8          9.238624       11.075607   1.000000  -0.000169
      9          9.756620       11.707969   1.000001  -0.000000
     10          9.858155       11.772897   1.000030  -0.000000
     11         11.637043       13.094566  -0.000000  -0.000000
     12         17.229014       17.897032   0.000000   0.000000
     13         19.748522       20.350298   0.000000   0.000000
     14         19.954476       20.490943   0.000000   0.000000
     15         21.304377       21.767806   0.000000   0.000000
     16         26.189225       26.558881   0.000000   0.000000
 
  0.4000000E+00  0.2000000E+00  0.0000000E+00  0.7500000E-02
      1          6.082600        7.183784   1.000000   1.000000
      2          6.190286        7.393107   1.000000   1.000000
      3          6.217871        7.420198   1.000000   1.000000
      4          7.243291        8.145661   1.000000   1.000000
      5          7.585735        9.188624   1.000000   1.000000
      6          7.808524        9.334241   1.000000   1.000000
      7          8.410648       10.052738   1.000000   1.003646
      8          9.595245       11.472483   1.000000  -0.000000
      9          9.746538       11.696211   1.000001  -0.000000
     10          9.798156       11.712073   1.000004  -0.000000
     11         13.343668       14.370397  -0.000000  -0.000000
     12         14.775671       15.761758  -0.000000  -0.000000
     13         19.973649       20.452442   0.000000   0.000000
     14         21.679490       22.154519   0.000000   0.000000
     15         21.999051       22.405679   0.000000   0.000000
     16         23.929489       24.457757   0.000000   0.000000
 
  0.3000000E+00  0.3000000E+00  0.0000000E+00  0.7500000E-02
      1          6.134502        7.444586   1.000000   1.000000
      2          6.422621        7.473701   1.000000   1.000000
      3          6.581777        7.758156   1.000000   1.000000
      4          6.814337        7.800060   1.000000   1.000000
      5          7.538338        9.085344   1.000000   1.000000
      6          7.735045        9.273936   1.000000   1.000000
      7          8.506405       10.155070   1.000000   1.018059
      8          9.422964       11.290784   1.000000  -0.000000
      9          9.693266       11.635587   1.000000  -0.000000
     10          9.751789       11.657949   1.000001  -0.000000
     11         13.767916       14.810456  -0.000000  -0.000000
     12         16.793875       17.505102   0.000000   0.000000
     13         16.827888       17.521655   0.000000   0.000000
     14         22.228209       22.744793   0.000000   0.000000
     15         22.486394       22.906249   0.000000   0.000000
     16         25.110127       25.564103   0.000000   0.000000
 
  0.0000000E+00  0.0000000E+00  0.1250000E+00  0.2500000E-02
      1          1.659514        1.676803   1.000000   1.000000
      2          5.253841        6.142021   1.000000   1.000000
      3          7.792679        9.452630   1.000000   1.000000
      4          7.851117        9.533958   1.000000   1.000000
      5          7.851118        9.533958   1.000000   1.000000
      6          8.162869        9.895348   1.000000   1.000088
      7          8.162870        9.895349   1.000000   1.000088
      8          8.678274        9.939816   1.000000   1.000292
      9          8.678275       10.507354   1.000000   0.457620
     10          9.681489       10.507355   1.000000   0.457617
     11          9.681489       11.621134   1.000000  -0.000000
     12          9.764869       11.621135   1.000001  -0.000000
     13         17.873586       18.798167   0.000000   0.000000
     14         32.682471       32.391343   0.000000   0.000000
     15         34.763264       34.778065   0.000000   0.000000
     16         35.567401       35.400048   0.000000   0.000000
 
  0.1000000E+00 -0.6938894E-17  0.1250000E+00  0.1500000E-01
      1          2.011393        2.030782   1.000000   1.000000
      2          5.477823        6.396063   1.000000   1.000000
      3          7.591383        9.211663   1.000000   1.000000
      4          7.954367        9.216335   1.000000   1.000000
      5          7.987315        9.646246   1.000000   1.000000
      6          7.999997        9.699999   1.000000   1.000000
      7          8.303614        9.897493   1.000000   1.000094
      8          8.440630       10.048988   1.000000   1.003393
      9          8.605988       10.420035   1.000000   0.801538
     10          8.746548       10.443735   1.000000   0.717982
     11          9.717161       11.663434   1.000000  -0.000000
     12         11.245925       12.497720  -0.000001  -0.000000
     13         18.007757       18.893115   0.000000   0.000000
     14         30.328755       30.488557   0.000000   0.000000
     15         33.031773       33.068268   0.000000   0.000000
     16         33.036131       33.380524   0.000000   0.000000
 
  0.2000000E+00 -0.1387779E-16  0.1250000E+00  0.1500000E-01
      1          3.002313        3.040984   1.000000   1.000000
      2          5.971464        6.998673   1.000000   1.000000
      3          7.216008        8.346892   1.000000   1.000000
      4          7.309534        8.810831   1.000000   1.000000
      5          7.845060        9.502635   1.000000   1.000000
      6          8.206137        9.899580   1.000000   1.000099
      7          8.301833        9.954988   1.000000   1.000427
      8          8.596139       10.360651   1.000000   0.953933
      9          8.711285       10.471433   1.000000   0.608545
     10          8.739688       10.541044   1.000000   0.319816
     11          9.783168       11.740217   1.000003  -0.000000
     12         12.935254       14.007636  -0.000000  -0.000000
     13         18.474604       19.245196   0.000000   0.000000
     14         25.726016       26.133994   0.000000   0.000000
     15         30.247848       30.570178   0.000000   0.000000
     16         31.214390       31.374529   0.000000   0.000000
 
  0.3000000E+00  0.2775558E-16  0.1250000E+00  0.1500000E-01
      1          4.350302        4.510054   1.000000   1.000000
      2          6.114588        7.326169   1.000000   1.000000
      3          6.552958        7.735611   1.000000   1.000000
      4          7.232459        8.565744   1.000000   1.000000
      5          7.830337        9.388661   1.000000   1.000000
      6          8.037900        9.768774   1.000000   1.000002
      7          8.336572        9.855309   1.000000   1.000028
      8          9.148694       10.951158   1.000000  -0.003050
      9          9.184863       10.977467   1.000000  -0.001784
     10          9.247985       11.102253   1.000000  -0.000081
     11          9.836734       11.800121   1.000016  -0.000000
     12         14.652817       15.548070  -0.000000  -0.000000
     13         19.269012       19.889460   0.000000   0.000000
     14         21.597924       22.172333   0.000000   0.000000
     15         27.652020       27.996985   0.000000   0.000000
     16         27.985718       28.257025   0.000000   0.000000
 
  0.4000000E+00  0.5551115E-16  0.1250000E+00  0.1500000E-01
      1          5.294764        5.920640   1.000000   1.000000
      2          5.853126        7.093869   1.000000   1.000000
      3          6.298698        7.478141   1.000000   1.000000
      4          7.226643        8.408431   1.000000   1.000000
      5          7.872389        9.579432   1.000000   1.000000
      6          8.172541        9.709707   1.000000   1.000000
      7          8.542838        9.864419   1.000000   1.000036
      8          9.650527       11.563301   1.000000  -0.000000
      9          9.700065       11.610594   1.000000  -0.000000
     10          9.896773       11.857193   1.000092  -0.000000
     11         10.319534       11.909744   1.009437  -0.000000
     12         15.476209       16.179714  -0.000000   0.000000
     13         18.370320       19.145151   0.000000   0.000000
     14         21.085952       21.536606   0.000000   0.000000
     15         24.538853       25.060156   0.000000   0.000000
     16         26.459224       26.668646   0.000000   0.000000
 
  0.5000000E+00  0.5551115E-16  0.1250000E+00  0.7500000E-02
      1          5.485310        6.479090   1.000000   1.000000
      2          5.698659        6.917295   1.000000   1.000000
      3          6.286845        7.476638   1.000000   1.000000
      4          7.252203        8.330635   1.000000   1.000000
      5          7.810241        9.508396   1.000000   1.000000
      6          8.293918        9.871134   1.000000   1.000044
      7          8.784905        9.982233   1.000000   1.000821
      8          9.773316       11.717633   1.000002  -0.000000
      9          9.891282       11.840635   1.000079  -0.000000
     10          9.992552       11.944104   1.001040  -0.000000
     11         11.763598       12.974118  -0.000000  -0.000000
     12         13.850539       14.822863  -0.000000  -0.000000
     13         19.762259       20.313791   0.000000   0.000000
     14         20.138067       20.713116   0.000000   0.000000
     15         24.559431       25.001151   0.000000   0.000000
     16         25.585780       26.089652   0.000000   0.000000
 
  0.1000000E+00  0.1000000E+00  0.1250000E+00  0.1500000E-01
      1          2.686173        2.714784   1.000000   1.000000
      2          5.857643        6.839836   1.000000   1.000000
      3          7.331161        8.570033   1.000000   1.000000
      4          7.459537        8.889533   1.000000   1.000000
      5          7.980761        9.671880   1.000000   1.000000
      6          8.066767        9.709967   1.000000   1.000000
      7          8.295117        9.991166   1.000000   1.001008
      8          8.452383       10.207634   1.000000   1.029876
      9          8.706309       10.458250   1.000000   0.661890
     10          8.716325       10.499438   1.000000   0.491056
     11          9.753012       11.703610   1.000001  -0.000000
     12         12.479692       13.595506  -0.000000  -0.000000
     13         18.314424       19.122888   0.000000   0.000000
     14         27.881300       28.167222   0.000000   0.000000
     15         28.597267       28.978297   0.000000   0.000000
     16         33.509812       33.530626   0.000000   0.000000
 
  0.2000000E+00  0.1000000E+00  0.1250000E+00  0.3000000E-01
      1          3.891870        3.973077   1.000000   1.000000
      2          6.275960        7.408366   1.000000   1.000000
      3          6.767704        7.931570   1.000000   1.000000
      4          7.070112        8.489806   1.000000   1.000000
      5          7.779427        9.409896   1.000000   1.000000
      6          8.025694        9.653061   1.000000   1.000000
      7          8.324768        9.999148   1.000000   1.001206
      8          8.689413       10.460812   1.000000   0.651679
      9          9.063001       10.861876   1.000000  -0.013572
     10          9.252601       11.064496   1.000000  -0.000227
     11          9.804674       11.753128   1.000006  -0.000000
     12         14.089872       15.063321  -0.000000  -0.000000
     13         19.040737       19.713900   0.000000   0.000000
     14         23.657565       24.133331   0.000000   0.000000
     15         26.309095       26.684202   0.000000   0.000000
     16         29.826303       30.049154   0.000000   0.000000
 
  0.3000000E+00  0.1000000E+00  0.1250000E+00  0.3000000E-01
      1          5.139919        5.486301   1.000000   1.000000
      2          6.142416        7.374619   1.000000   1.000000
      3          6.351292        7.572648   1.000000   1.000000
      4          7.108535        8.372231   1.000000   1.000000
      5          7.778803        9.352356   1.000000   1.000000
      6          8.097905        9.725592   1.000000   1.000000
      7          8.240932        9.763892   1.000000   1.000001
      8          9.186205       11.000506   1.000000  -0.001078
      9          9.603094       11.478942   1.000000  -0.000000
     10          9.710380       11.617477   1.000000  -0.000000
     11         10.224530       12.002482   1.033004  -0.000000
     12         15.682412       16.440238  -0.000000   0.000000
     13         19.223813       19.893882   0.000000   0.000000
     14         20.902305       21.432567   0.000000   0.000000
     15         24.696619       25.060867   0.000000   0.000000
     16         26.215915       26.612082   0.000000   0.000000
 
  0.4000000E+00  0.1000000E+00  0.1250000E+00  0.3000000E-01
      1          5.595544        6.516870   1.000000   1.000000
      2          5.891196        7.121999   1.000000   1.000000
      3          6.342471        7.511884   1.000000   1.000000
      4          7.179224        8.277516   1.000000   1.000000
      5          7.721972        9.367505   1.000000   1.000000
      6          8.317515        9.732188   1.000000   1.000000
      7          8.421464        9.931582   1.000000   1.000236
      8          9.683878       11.589886   1.000000  -0.000000
      9          9.778304       11.706966   1.000002  -0.000000
     10          9.886303       11.814119   1.000068  -0.000000
     11         11.659898       12.987957  -0.000000  -0.000000
     12         14.861154       15.699556  -0.000000  -0.000000
     13         19.087994       19.761009   0.000000   0.000000
     14         21.207076       21.663470   0.000000   0.000000
     15         23.634515       24.023234   0.000000   0.000000
     16         24.508486       24.949535   0.000000   0.000000
 
  0.2000000E+00  0.2000000E+00  0.1250000E+00  0.1500000E-01
      1          5.110672        5.331488   1.000000   1.000000
      2          6.356963        7.577477   1.000000   1.000000
      3          6.627662        7.840804   1.000000   1.000000
      4          6.709358        8.058332   1.000000   1.000000
      5          7.685195        9.265439   1.000000   1.000000
      6          8.014204        9.603057   1.000000   1.000000
      7          8.180345        9.813585   1.000000   1.000007
      8          8.871796       10.670384   1.000000  -0.004918
      9          9.620993       11.492722   1.000000  -0.000000
     10          9.641415       11.551777   1.000000  -0.000000
     11         10.295210       12.060353   1.026190  -0.000000
     12         15.647503       16.459891  -0.000000   0.000000
     13         20.078208       20.653046   0.000000   0.000000
     14         21.756238       22.271089   0.000000   0.000000
     15         22.411856       22.890113   0.000000   0.000000
     16         28.209913       28.431575   0.000000   0.000000
 
  0.3000000E+00  0.2000000E+00  0.1250000E+00  0.3000000E-01
      1          5.920473        6.636708   1.000000   1.000000
      2          6.289604        7.443890   1.000000   1.000000
      3          6.364440        7.633295   1.000000   1.000000
      4          6.896952        8.089412   1.000000   1.000000
      5          7.630951        9.163854   1.000000   1.000000
      6          7.955502        9.487949   1.000000   1.000000
      7          8.304708        9.920223   1.000000   1.000175
      8          9.247432       11.087585   1.000000  -0.000122
      9          9.633721       11.560848   1.000000  -0.000000
     10          9.897806       11.821243   1.000095  -0.000000
     11         11.701436       13.146704  -0.000000  -0.000000
     12         16.722926       17.366704   0.000000   0.000000
     13         18.892764       19.592225   0.000000   0.000000
     14         20.769822       21.286441   0.000000   0.000000
     15         22.113146       22.543432   0.000000   0.000000
     16         25.240364       25.693077   0.000000   0.000000
 
  0.4000000E+00  0.2000000E+00  0.1250000E+00  0.1500000E-01
      1          5.927633        7.052548   1.000000   1.000000
      2          6.238807        7.460904   1.000000   1.000000
      3          6.478099        7.644800   1.000000   1.000000
      4          7.030001        8.055008   1.000000   1.000000
      5          7.556592        9.142430   1.000000   1.000000
      6          7.972619        9.391504   1.000000   1.000000
      7          8.445833       10.086345   1.000000   1.006668
      8          9.599062       11.478437   1.000000  -0.000000
      9          9.612445       11.537022   1.000000  -0.000000
     10          9.830501       11.750818   1.000013  -0.000000
     11         13.437243       14.436592  -0.000000  -0.000000
     12         14.771010       15.732578  -0.000000  -0.000000
     13         19.891502       20.408826   0.000000   0.000000
     14         20.958355       21.494623   0.000000   0.000000
     15         21.245553       21.758411   0.000000   0.000000
     16         25.142554       25.578443   0.000000   0.000000
 
  0.3000000E+00  0.3000000E+00  0.1250000E+00  0.1500000E-01
      1          6.161790        7.476019   1.000000   1.000000
      2          6.441593        7.478070   1.000000   1.000000
      3          6.633512        7.814327   1.000000   1.000000
      4          6.781043        7.844192   1.000000   1.000000
      5          7.589977        9.084965   1.000000   1.000000
      6          7.682277        9.191714   1.000000   1.000000