 vasp.6.3.2 27Jun22 (build Aug 12 2022 00:53:59) complex                        
  
 executed on               tv2STD date 2024.11.30  15:14:01
 running   24 mpi-ranks, with    1 threads/rank
 distrk:  each k-point on   24 cores,    1 groups
 distr:  one band on NCORE=   6 cores,    4 groups


--------------------------------------------------------------------------------------------------------


 INCAR:
   SYSTEM = Co fcc
   NWRITE = 2    write-flag
   ISTART = 0    job   : 0-new, 1-cont, 2-samecut
   ICHARG = 2    charge: 0-wave, 1-file, 2-atom, >10-const
   INIWAV = 1    electr: 0-lowe 1-rand  2-diag
   ENCUT = 350     energy cutoff in eV
   PREC = Accurate      normal | accurate
   ADDGRID = .FALSE.  (use fine grid)
   NELM = 100     number of ELM steps
   EDIFF = 1E-06    energy stopping-criterion for ELM
   LREAL = .FALSE.      real-space projection (.FALSE., .TRUE., On, Auto)
   ALGO = Normal     Normal, Fast, Very_Fast
   LWAVE = .FALSE.
   LCHARG = .FALSE.
   NSW = 0       max number of geometry steps
   IBRION = -1     ionic relax: 0-MD, 1-quasi-Newton, 2-CG, 3-Damped MD
   EDIFFG = -0.02  force (eV/A) stopping-criterion for geometry steps
   ISIF = 2     (1:force\=y stress\=trace only ions\=y shape\=n volume\=n)
   ISYM = 1     (1-use symmetry, 0-no symmetry)
   ISMEAR = 1     (-1-Fermi, 1-Methfessel/Paxton)
   SIGMA = 0.2   broadening in eV
   NPAR = 4
   ISPIN = 2
   MAGMOM = 2*3

 POTCAR:    PAW_PBE Co 02Aug2007                  
 POTCAR:    PAW_PBE Co 02Aug2007                  
   SHA256 =  0e690c60710354995174544f52f9f2c30879afabeffe3b3fbd4001cb294e56d4 Co/POTCAR             
   COPYR  = (c) Copyright 02Aug2007 Georg Kresse                                                    
   COPYR  = This file is part of the software VASP. Any use, copying, and all other rights are regul
   COPYR  = If you do not have a valid VASP license, you may not use, copy or distribute this file. 
   VRHFIN =Co: d8 s1                                                                                
   LEXCH  = PE                                                                                      
   EATOM  =   813.3670 eV,   59.7808 Ry                                                             
                                                                                                    
   TITEL  = PAW_PBE Co 02Aug2007                                                                    
   LULTRA =        F    use ultrasoft PP ?                                                          
   IUNSCR =        1    unscreen: 0-lin 1-nonlin 2-no                                               
   RPACOR =    2.000    partial core radius                                                         
   POMASS =   58.933; ZVAL   =    9.000    mass and valenz                                          
   RCORE  =    2.300    outmost cutoff radius                                                       
   RWIGS  =    2.460; RWIGS  =    1.302    wigner-seitz radius (au A)                               
   ENMAX  =  267.968; ENMIN  =  200.976 eV                                                          
   RCLOC  =    1.203    cutoff for local pot                                                        
   LCOR   =        T    correct aug charges                                                         
   LPAW   =        T    paw PP                                                                      
   EAUG   =  477.818                                                                                
   DEXC   =    0.000                                                                                
   RMAX   =    2.360    core radius for proj-oper                                                   
   RAUG   =    1.300    factor for augmentation sphere                                              
   RDEP   =    2.393    radius for radial grids                                                     
   RDEPT  =    1.864    core radius for aug-charge                                                  
                                                                                                    
   Atomic configuration                                                                             
    9 entries                                                                                       
     n  l   j            E        occ.                                                              
     1  0  0.50     -7587.6674   2.0000                                                             
     2  0  0.50      -893.6084   2.0000                                                             
     2  1  1.50      -764.5805   6.0000                                                             
     3  0  0.50       -97.5973   2.0000                                                             
     3  1  1.50       -60.9648   6.0000                                                             
     3  2  2.50        -4.2382   8.0000                                                             
     4  0  0.50        -4.3746   1.0000                                                             
     4  1  1.50        -4.0817   0.0000                                                             
     4  3  2.50        -1.3606   0.0000                                                             
   Description                                                                                      
     l       E           TYP  RCUT    TYP  RCUT                                                     
     2     -4.2382362     23  2.300                                                                 
     2     -5.5988188     23  2.300                                                                 
     0     -4.3745797     23  2.300                                                                 
     0      5.7660125     23  2.300                                                                 
     1     -2.7211652     23  2.300                                                                 
     1     16.9860234     23  2.300                                                                 
  local pseudopotential read in
  partial core-charges read in
  partial kinetic energy density read in
  atomic valenz-charges read in
  non local Contribution for L=           2  read in
    real space projection operators read in
  non local Contribution for L=           2  read in
    real space projection operators read in
  non local Contribution for L=           0  read in
    real space projection operators read in
  non local Contribution for L=           0  read in
    real space projection operators read in
  non local Contribution for L=           1  read in
    real space projection operators read in
  non local Contribution for L=           1  read in
    real space projection operators read in
    PAW grid and wavefunctions read in
 
   number of l-projection  operators is LMAX  =           6
   number of lm-projection operators is LMMAX =          18
 
  PAW_PBE Co 02Aug2007                  :
 energy of atom  1       EATOM= -813.3670
 kinetic energy error for atom=    0.0218 (will be added to EATOM!!)
 
 
 POSCAR: Co
  positions in cartesian coordinates
  No initial velocities read in
 exchange correlation table for  LEXCH =        8
   RHO(1)=    0.500       N(1)  =     2000
   RHO(2)=  100.500       N(2)  =     4000
 


--------------------------------------------------------------------------------------------------------


 ion  position               nearest neighbor table
   1  0.000  0.000  0.000-
   2  0.333  0.667  0.500-
 
  LATTYP: Found a hexagonal cell.
 ALAT       =     2.4700000000
 C/A-ratio  =     3.2753036437
  
  Lattice vectors:
  
 A1 = (   2.4700000000,   0.0000000000,   0.0000000000)
 A2 = (  -1.2350000000,   2.1390827473,   0.0000000000)
 A3 = (   0.0000000000,   0.0000000000,   8.0900000000)


Analysis of symmetry for initial positions (statically):
=====================================================================
 Subroutine PRICEL returns:
 Original cell was already a primitive cell.
 

 Routine SETGRP: Setting up the symmetry group for a 
 hexagonal supercell.


 Subroutine GETGRP returns: Found 24 space group operations
 (whereof 12 operations were pure point group operations)
 out of a pool of 24 trial point group operations.


The static configuration has the point symmetry D_3h.
 The point group associated with its full space group is D_6h.


Analysis of symmetry for dynamics (positions and initial velocities):
=====================================================================
 Subroutine PRICEL returns:
 Original cell was already a primitive cell.
 

 Routine SETGRP: Setting up the symmetry group for a 
 hexagonal supercell.


 Subroutine GETGRP returns: Found 24 space group operations
 (whereof 12 operations were pure point group operations)
 out of a pool of 24 trial point group operations.


The dynamic configuration has the point symmetry D_3h.
 The point group associated with its full space group is D_6h.


Analysis of structural, dynamic, and magnetic symmetry:
=====================================================================
 Subroutine PRICEL returns:
 Original cell was already a primitive cell.
 

 Routine SETGRP: Setting up the symmetry group for a 
 hexagonal supercell.


 Subroutine GETGRP returns: Found 24 space group operations
 (whereof 12 operations were pure point group operations)
 out of a pool of 24 trial point group operations.


The overall configuration has the point symmetry D_3h.
 The point group associated with its full space group is D_6h.


 Subroutine INISYM returns: Found 24 space group operations
 (whereof 12 operations are pure point group operations),
 and found     1 'primitive' translations


----------------------------------------------------------------------------------------

                                     Primitive cell                                     

  volume of cell :      42.7438

  direct lattice vectors                    reciprocal lattice vectors
     2.470000000  0.000000000  0.000000000     0.404858300  0.233745048  0.000000000
    -1.235000000  2.139082747  0.000000000     0.000000000  0.467490097  0.000000000
     0.000000000  0.000000000  8.090000000     0.000000000  0.000000000  0.123609394

  length of vectors
     2.470000000  2.470000000  8.090000000     0.467490097  0.467490097  0.123609394

  position of ions in fractional coordinates (direct lattice)
     0.000000000  0.000000000  0.000000000
     0.333333333  0.666666667  0.500000000

  ion indices of the primitive-cell ions
   primitive index   ion index
                 1           1
                 2           2

----------------------------------------------------------------------------------------

 
 
 KPOINTS: Automatic mesh                          

Automatic generation of k-mesh.
 Grid dimensions read from file:
 generate k-points for:    6    6    4

 Generating k-lattice:

  Cartesian coordinates                     Fractional coordinates (reciprocal lattice)
     0.067476383  0.038957508  0.000000000     0.166666667  0.000000000  0.000000000
     0.000000000  0.077915016  0.000000000     0.000000000  0.166666667  0.000000000
     0.000000000  0.000000000  0.030902349     0.000000000  0.000000000  0.250000000

  Length of vectors
     0.077915016  0.077915016  0.030902349

  Shift w.r.t. Gamma in fractional coordinates (k-lattice)
     0.000000000  0.000000000  0.000000000

 
 Subroutine IBZKPT returns following result:
 ===========================================
 
 Found     21 irreducible k-points:
 
 Following reciprocal coordinates:
            Coordinates               Weight
  0.000000  0.000000  0.000000      1.000000
  0.166667 -0.000000  0.000000      6.000000
  0.333333 -0.000000  0.000000      6.000000
  0.500000 -0.000000  0.000000      3.000000
  0.166667  0.166667  0.000000      6.000000
  0.333333  0.166667  0.000000     12.000000
  0.333333  0.333333  0.000000      2.000000
  0.000000  0.000000  0.250000      2.000000
  0.166667 -0.000000  0.250000     12.000000
  0.333333 -0.000000  0.250000     12.000000
  0.500000 -0.000000  0.250000      6.000000
  0.166667  0.166667  0.250000     12.000000
  0.333333  0.166667  0.250000     24.000000
  0.333333  0.333333  0.250000      4.000000
  0.000000  0.000000  0.500000      1.000000
  0.166667 -0.000000  0.500000      6.000000
  0.333333 -0.000000  0.500000      6.000000
  0.500000 -0.000000  0.500000      3.000000
  0.166667  0.166667  0.500000      6.000000
  0.333333  0.166667  0.500000     12.000000
  0.333333  0.333333  0.500000      2.000000
 
 Following cartesian coordinates:
            Coordinates               Weight
  0.000000  0.000000  0.000000      1.000000
  0.067476  0.038958  0.000000      6.000000
  0.134953  0.077915  0.000000      6.000000
  0.202429  0.116873  0.000000      3.000000
  0.067476  0.116873  0.000000      6.000000
  0.134953  0.155830  0.000000     12.000000
  0.134953  0.233745  0.000000      2.000000
  0.000000  0.000000  0.030902      2.000000
  0.067476  0.038958  0.030902     12.000000
  0.134953  0.077915  0.030902     12.000000
  0.202429  0.116873  0.030902      6.000000
  0.067476  0.116873  0.030902     12.000000
  0.134953  0.155830  0.030902     24.000000
  0.134953  0.233745  0.030902      4.000000
  0.000000  0.000000  0.061805      1.000000
  0.067476  0.038958  0.061805      6.000000
  0.134953  0.077915  0.061805      6.000000
  0.202429  0.116873  0.061805      3.000000
  0.067476  0.116873  0.061805      6.000000
  0.134953  0.155830  0.061805     12.000000
  0.134953  0.233745  0.061805      2.000000
 


--------------------------------------------------------------------------------------------------------




 Dimension of arrays:
   k-points           NKPTS =     21   k-points in BZ     NKDIM =     21   number of bands    NBANDS=     16
   number of dos      NEDOS =    301   number of ions     NIONS =      2
   non local maximal  LDIM  =      6   non local SUM 2l+1 LMDIM =     18
   total plane-waves  NPLWV =  12800
   max r-space proj   IRMAX =      1   max aug-charges    IRDMAX=  12008
   dimension x,y,z NGX =    16 NGY =   16 NGZ =   50
   dimension x,y,z NGXF=    32 NGYF=   32 NGZF=  100
   support grid    NGXF=    32 NGYF=   32 NGZF=  100
   ions per type =               2
   NGX,Y,Z   is equivalent  to a cutoff of  10.77, 10.77, 10.27 a.u.
   NGXF,Y,Z  is equivalent  to a cutoff of  21.54, 21.54, 20.55 a.u.

 SYSTEM =  Co fcc                                  
 POSCAR =  Co                                      

 Startparameter for this run:
   NWRITE =      2    write-flag & timer
   PREC   = accura    normal or accurate (medium, high low for compatibility)
   ISTART =      0    job   : 0-new  1-cont  2-samecut
   ICHARG =      2    charge: 1-file 2-atom 10-const
   ISPIN  =      2    spin polarized calculation?
   LNONCOLLINEAR =      F non collinear calculations
   LSORBIT =      F    spin-orbit coupling
   INIWAV =      1    electr: 0-lowe 1-rand  2-diag
   LASPH  =      F    aspherical Exc in radial PAW
 Electronic Relaxation 1
   ENCUT  =  350.0 eV  25.72 Ry    5.07 a.u.   3.77  3.77 12.34*2*pi/ulx,y,z
   ENINI  =  350.0     initial cutoff
   ENAUG  =  477.8 eV  augmentation charge cutoff
   NELM   =    100;   NELMIN=  2; NELMDL= -5     # of ELM steps 
   EDIFF  = 0.1E-05   stopping-criterion for ELM
   LREAL  =      F    real-space projection
   NLSPLINE    = F    spline interpolate recip. space projectors
   LCOMPAT=      F    compatible to vasp.4.4
   GGA_COMPAT  = T    GGA compatible to vasp.4.4-vasp.4.6
   LMAXPAW     = -100 max onsite density
   LMAXMIX     =    2 max onsite mixed and CHGCAR
   VOSKOWN=      0    Vosko Wilk Nusair interpolation
   ROPT   =    0.00000
 Ionic relaxation
   EDIFFG = -.2E-01   stopping-criterion for IOM
   NSW    =      0    number of steps for IOM
   NBLOCK =      1;   KBLOCK =      1    inner block; outer block 
   IBRION =     -1    ionic relax: 0-MD 1-quasi-New 2-CG
   NFREE  =      0    steps in history (QN), initial steepest desc. (CG)
   ISIF   =      2    stress and relaxation
   IWAVPR =     10    prediction:  0-non 1-charg 2-wave 3-comb
   ISYM   =      1    0-nonsym 1-usesym 2-fastsym
   LCORR  =      T    Harris-Foulkes like correction to forces

   POTIM  = 0.5000    time-step for ionic-motion
   TEIN   =    0.0    initial temperature
   TEBEG  =    0.0;   TEEND  =   0.0 temperature during run
   SMASS  =  -3.00    Nose mass-parameter (am)
   estimated Nose-frequenzy (Omega)   =  0.10E-29 period in steps = 0.13E+47 mass=  -0.139E-27a.u.
   SCALEE = 1.0000    scale energy and forces
   NPACO  =    256;   APACO  = 10.0  distance and # of slots for P.C.
   PSTRESS=    0.0 pullay stress

  Mass of Ions in am
   POMASS =  58.93
  Ionic Valenz
   ZVAL   =   9.00
  Atomic Wigner-Seitz radii
   RWIGS  =  -1.00
  virtual crystal weights 
   VCA    =   1.00
   NELECT =      18.0000    total number of electrons
   NUPDOWN=      -1.0000    fix difference up-down

 DOS related values:
   EMIN   =  10.00;   EMAX   =-10.00  energy-range for DOS
   EFERMI =   0.00
   ISMEAR =     1;   SIGMA  =   0.20  broadening in eV -4-tet -1-fermi 0-gaus

 Electronic relaxation 2 (details)
   IALGO  =     38    algorithm
   LDIAG  =      T    sub-space diagonalisation (order eigenvalues)
   LSUBROT=      F    optimize rotation matrix (better conditioning)
   TURBO    =      0    0=normal 1=particle mesh
   IRESTART =      0    0=no restart 2=restart with 2 vectors
   NREBOOT  =      0    no. of reboots
   NMIN     =      0    reboot dimension
   EREF     =   0.00    reference energy to select bands
   IMIX   =      4    mixing-type and parameters
     AMIX     =   0.40;   BMIX     =  1.00
     AMIX_MAG =   1.60;   BMIX_MAG =  1.00
     AMIN     =   0.10
     WC   =   100.;   INIMIX=   1;  MIXPRE=   1;  MAXMIX= -45

 Intra band minimization:
   WEIMIN = 0.0000     energy-eigenvalue tresh-hold
   EBREAK =  0.16E-07  absolut break condition
   DEPER  =   0.30     relativ break condition  

   TIME   =   0.40     timestep for ELM

  volume/ion in A,a.u.               =      21.37       144.22
  Fermi-wavevector in a.u.,A,eV,Ry     =   1.227085  2.318854 20.486804  1.505738
  Thomas-Fermi vector in A             =   2.362062
 
 Write flags
   LWAVE        =      F    write WAVECAR
   LDOWNSAMPLE  =      F    k-point downsampling of WAVECAR
   LCHARG       =      F    write CHGCAR
   LVTOT        =      F    write LOCPOT, total local potential
   LVHAR        =      F    write LOCPOT, Hartree potential only
   LELF         =      F    write electronic localiz. function (ELF)
   LORBIT       =      0    0 simple, 1 ext, 2 COOP (PROOUT), +10 PAW based schemes


 Dipole corrections
   LMONO  =      F    monopole corrections only (constant potential shift)
   LDIPOL =      F    correct potential (dipole corrections)
   IDIPOL =      0    1-x, 2-y, 3-z, 4-all directions 
   EPSILON=  1.0000000 bulk dielectric constant

 Exchange correlation treatment:
   GGA     =    --    GGA type
   LEXCH   =     8    internal setting for exchange type
   LIBXC   =     F    Libxc                    
   VOSKOWN =     0    Vosko Wilk Nusair interpolation
   LHFCALC =     F    Hartree Fock is set to
   LHFONE  =     F    Hartree Fock one center treatment
   AEXX    =    0.0000 exact exchange contribution

 Linear response parameters
   LEPSILON=     F    determine dielectric tensor
   LRPA    =     F    only Hartree local field effects (RPA)
   LNABLA  =     F    use nabla operator in PAW spheres
   LVEL    =     F    velocity operator in full k-point grid
   CSHIFT  =0.1000    complex shift for real part using Kramers Kronig
   OMEGAMAX=  -1.0    maximum frequency
   DEG_THRESHOLD= 0.2000000E-02 threshold for treating states as degnerate
   RTIME   =   -0.100 relaxation time in fs
  (WPLASMAI=    0.000 imaginary part of plasma frequency in eV, 0.658/RTIME)
   DFIELD  = 0.0000000 0.0000000 0.0000000 field for delta impulse in time
 
  Optional k-point grid parameters
   LKPOINTS_OPT  =     F    use optional k-point grid
   KPOINTS_OPT_MODE=     1    mode for optional k-point grid
 
 Orbital magnetization related:
   ORBITALMAG=     F  switch on orbital magnetization
   LCHIMAG   =     F  perturbation theory with respect to B field
   DQ        =  0.001000  dq finite difference perturbation B field
   LLRAUG    =     F  two centre corrections for induced B field



--------------------------------------------------------------------------------------------------------


 Static calculation
 charge density and potential will be updated during run
 spin polarized calculation
 Variant of blocked Davidson
 Davidson routine will perform the subspace rotation
 perform sub-space diagonalisation
    after iterative eigenvector-optimisation
 modified Broyden-mixing scheme, WC =      100.0
 initial mixing is a Kerker type mixing with AMIX =  0.4000 and BMIX =      1.0000
 Hartree-type preconditioning will be used
 using additional bands            7
 reciprocal scheme for non local part
 use partial core corrections
 calculate Harris-corrections to forces 
   (improved forces if not selfconsistent)
 use gradient corrections 
 use of overlap-Matrix (Vanderbilt PP)
 Methfessel and Paxton  Order N= 1 SIGMA  =   0.20


--------------------------------------------------------------------------------------------------------


  energy-cutoff  :      350.00
  volume of cell :       42.74
      direct lattice vectors                 reciprocal lattice vectors
     2.470000000  0.000000000  0.000000000     0.404858300  0.233745048  0.000000000
    -1.235000000  2.139082747  0.000000000     0.000000000  0.467490097  0.000000000
     0.000000000  0.000000000  8.090000000     0.000000000  0.000000000  0.123609394

  length of vectors
     2.470000000  2.470000000  8.090000000     0.467490097  0.467490097  0.123609394


 
 k-points in units of 2pi/SCALE and weight: Automatic mesh                          
   0.00000000  0.00000000  0.00000000       0.007
   0.06747638  0.03895751  0.00000000       0.042
   0.13495277  0.07791502  0.00000000       0.042
   0.20242915  0.11687252  0.00000000       0.021
   0.06747638  0.11687252  0.00000000       0.042
   0.13495277  0.15583003  0.00000000       0.083
   0.13495277  0.23374505  0.00000000       0.014
   0.00000000  0.00000000  0.03090235       0.014
   0.06747638  0.03895751  0.03090235       0.083
   0.13495277  0.07791502  0.03090235       0.083
   0.20242915  0.11687252  0.03090235       0.042
   0.06747638  0.11687252  0.03090235       0.083
   0.13495277  0.15583003  0.03090235       0.167
   0.13495277  0.23374505  0.03090235       0.028
   0.00000000  0.00000000  0.06180470       0.007
   0.06747638  0.03895751  0.06180470       0.042
   0.13495277  0.07791502  0.06180470       0.042
   0.20242915  0.11687252  0.06180470       0.021
   0.06747638  0.11687252  0.06180470       0.042
   0.13495277  0.15583003  0.06180470       0.083
   0.13495277  0.23374505  0.06180470       0.014
 
 k-points in reciprocal lattice and weights: Automatic mesh                          
   0.00000000  0.00000000  0.00000000       0.007
   0.16666667 -0.00000000  0.00000000       0.042
   0.33333333 -0.00000000  0.00000000       0.042
   0.50000000 -0.00000000  0.00000000       0.021
   0.16666667  0.16666667  0.00000000       0.042
   0.33333333  0.16666667  0.00000000       0.083
   0.33333333  0.33333333  0.00000000       0.014
   0.00000000  0.00000000  0.25000000       0.014
   0.16666667 -0.00000000  0.25000000       0.083
   0.33333333 -0.00000000  0.25000000       0.083
   0.50000000 -0.00000000  0.25000000       0.042
   0.16666667  0.16666667  0.25000000       0.083
   0.33333333  0.16666667  0.25000000       0.167
   0.33333333  0.33333333  0.25000000       0.028
   0.00000000  0.00000000  0.50000000       0.007
   0.16666667 -0.00000000  0.50000000       0.042
   0.33333333 -0.00000000  0.50000000       0.042
   0.50000000 -0.00000000  0.50000000       0.021
   0.16666667  0.16666667  0.50000000       0.042
   0.33333333  0.16666667  0.50000000       0.083
   0.33333333  0.33333333  0.50000000       0.014
 
 position of ions in fractional coordinates (direct lattice) 
   0.00000000  0.00000000  0.00000000
   0.33333333  0.66666667  0.50000000
 
 position of ions in cartesian coordinates  (Angst):
   0.00000000  0.00000000  0.00000000
   0.00000000  1.42605516  4.04500000
 


--------------------------------------------------------------------------------------------------------


 k-point   1 :   0.0000 0.0000 0.0000  plane waves:     637
 k-point   2 :   0.1667-0.0000 0.0000  plane waves:     635
 k-point   3 :   0.3333-0.0000 0.0000  plane waves:     638
 k-point   4 :   0.5000-0.0000 0.0000  plane waves:     634
 k-point   5 :   0.1667 0.1667 0.0000  plane waves:     626
 k-point   6 :   0.3333 0.1667 0.0000  plane waves:     642
 k-point   7 :   0.3333 0.3333 0.0000  plane waves:     642
 k-point   8 :   0.0000 0.0000 0.2500  plane waves:     637
 k-point   9 :   0.1667-0.0000 0.2500  plane waves:     638
 k-point  10 :   0.3333-0.0000 0.2500  plane waves:     634
 k-point  11 :   0.5000-0.0000 0.2500  plane waves:     638
 k-point  12 :   0.1667 0.1667 0.2500  plane waves:     626
 k-point  13 :   0.3333 0.1667 0.2500  plane waves:     637
 k-point  14 :   0.3333 0.3333 0.2500  plane waves:     648
 k-point  15 :   0.0000 0.0000 0.5000  plane waves:     636
 k-point  16 :   0.1667-0.0000 0.5000  plane waves:     632
 k-point  17 :   0.3333-0.0000 0.5000  plane waves:     632
 k-point  18 :   0.5000-0.0000 0.5000  plane waves:     624
 k-point  19 :   0.1667 0.1667 0.5000  plane waves:     636
 k-point  20 :   0.3333 0.1667 0.5000  plane waves:     644
 k-point  21 :   0.3333 0.3333 0.5000  plane waves:     654

 maximum and minimum number of plane-waves per node :       117       96

 maximum number of plane-waves:       654
 maximum index in each direction: 
   IXMAX=    3   IYMAX=    3   IZMAX=   12
   IXMIN=   -4   IYMIN=   -4   IZMIN=  -12


 parallel 3D FFT for wavefunctions:
    minimum data exchange during FFTs selected (reduces bandwidth)
 parallel 3D FFT for charge:
    minimum data exchange during FFTs selected (reduces bandwidth)


 total amount of memory used by VASP MPI-rank0    31681. kBytes
=======================================================================

   base      :      30000. kBytes
   nonl-proj :        354. kBytes
   fftplans  :        270. kBytes
   grid      :        661. kBytes
   one-center:         31. kBytes
   wavefun   :        365. kBytes
 
     INWAV:  cpu time      0.0000: real time      0.0001
 Broyden mixing: mesh for mixing (old mesh)
   NGX =  7   NGY =  7   NGZ = 25
  (NGX  = 32   NGY  = 32   NGZ  =100)
  gives a total of   1225 points

 initial charge density was supplied:
 charge density of overlapping atoms calculated
 number of electron      18.0000000 magnetization       6.0000000
 keeping initial charge density in first step


--------------------------------------------------------------------------------------------------------


 Maximum index for augmentation-charges          956 (set IRDMAX)


--------------------------------------------------------------------------------------------------------


 First call to EWALD:  gamma=   0.507
 Maximum number of real-space cells 4x 4x 1
 Maximum number of reciprocal cells 2x 2x 6

    FEWALD:  cpu time      0.0015: real time      0.0015


--------------------------------------- Iteration      1(   1)  ---------------------------------------


    POTLOK:  cpu time      0.0103: real time      0.0104
    SETDIJ:  cpu time      0.0054: real time      0.0054
     EDDAV:  cpu time      0.1403: real time      0.1413
       DOS:  cpu time      0.0012: real time      0.0012
    --------------------------------------------
      LOOP:  cpu time      0.1573: real time      0.1583

 eigenvalue-minimisations  :  1360
 total energy-change (2. order) : 0.7260413E+02  (-0.6182749E+03)
 number of electron      18.0000000 magnetization       6.0000000
 augmentation part       18.0000000 magnetization       6.0000000

 Free energy of the ion-electron system (eV)
  ---------------------------------------------------
  alpha Z        PSCENC =        39.63868225
  Ewald energy   TEWEN  =     -1054.56880693
  -Hartree energ DENC   =      -595.60964206
  -exchange      EXHF   =         0.00000000
  -V(xc)+E(xc)   XCENC  =        33.36921367
  PAW double counting   =      1439.98163886    -1545.88690193
  entropy T*S    EENTRO =         0.00046671
  eigenvalues    EBANDS =       128.98904982
  atomic energy  EATOM  =      1626.69043168
  Solvation  Ediel_sol  =         0.00000000
  ---------------------------------------------------
  free energy    TOTEN  =        72.60413208 eV

  energy without entropy =       72.60366536  energy(sigma->0) =       72.60397650


--------------------------------------------------------------------------------------------------------




--------------------------------------- Iteration      1(   2)  ---------------------------------------


     EDDAV:  cpu time      0.1320: real time      0.1335
       DOS:  cpu time      0.0008: real time      0.0008
    --------------------------------------------
      LOOP:  cpu time      0.1329: real time      0.1343

 eigenvalue-minimisations  :  1344
 total energy-change (2. order) :-0.8342578E+02  (-0.7699005E+02)
 number of electron      18.0000000 magnetization       6.0000000
 augmentation part       18.0000000 magnetization       6.0000000

 Free energy of the ion-electron system (eV)
  ---------------------------------------------------
  alpha Z        PSCENC =        39.63868225
  Ewald energy   TEWEN  =     -1054.56880693
  -Hartree energ DENC   =      -595.60964206
  -exchange      EXHF   =         0.00000000
  -V(xc)+E(xc)   XCENC  =        33.36921367
  PAW double counting   =      1439.98163886    -1545.88690193
  entropy T*S    EENTRO =        -0.00125460
  eigenvalues    EBANDS =        45.56498983
  atomic energy  EATOM  =      1626.69043168
  Solvation  Ediel_sol  =         0.00000000
  ---------------------------------------------------
  free energy    TOTEN  =       -10.82164923 eV

  energy without entropy =      -10.82039463  energy(sigma->0) =      -10.82123103


--------------------------------------------------------------------------------------------------------




--------------------------------------- Iteration      1(   3)  ---------------------------------------


     EDDAV:  cpu time      0.1562: real time      0.1572
       DOS:  cpu time      0.0008: real time      0.0009
    --------------------------------------------
      LOOP:  cpu time      0.1570: real time      0.1581

 eigenvalue-minimisations  :  1648
 total energy-change (2. order) :-0.1903277E+01  (-0.1874393E+01)
 number of electron      18.0000000 magnetization       6.0000000
 augmentation part       18.0000000 magnetization       6.0000000

 Free energy of the ion-electron system (eV)
  ---------------------------------------------------
  alpha Z        PSCENC =        39.63868225
  Ewald energy   TEWEN  =     -1054.56880693
  -Hartree energ DENC   =      -595.60964206
  -exchange      EXHF   =         0.00000000
  -V(xc)+E(xc)   XCENC  =        33.36921367
  PAW double counting   =      1439.98163886    -1545.88690193
  entropy T*S    EENTRO =        -0.00770708
  eigenvalues    EBANDS =        43.66816525
  atomic energy  EATOM  =      1626.69043168
  Solvation  Ediel_sol  =         0.00000000
  ---------------------------------------------------
  free energy    TOTEN  =       -12.72492629 eV

  energy without entropy =      -12.71721920  energy(sigma->0) =      -12.72235726


--------------------------------------------------------------------------------------------------------




--------------------------------------- Iteration      1(   4)  ---------------------------------------


     EDDAV:  cpu time      0.1618: real time      0.1629
       DOS:  cpu time      0.0009: real time      0.0009
    --------------------------------------------
      LOOP:  cpu time      0.1627: real time      0.1637

 eigenvalue-minimisations  :  1760
 total energy-change (2. order) :-0.3506924E-01  (-0.3505572E-01)
 number of electron      18.0000000 magnetization       6.0000000
 augmentation part       18.0000000 magnetization       6.0000000

 Free energy of the ion-electron system (eV)
  ---------------------------------------------------
  alpha Z        PSCENC =        39.63868225
  Ewald energy   TEWEN  =     -1054.56880693
  -Hartree energ DENC   =      -595.60964206
  -exchange      EXHF   =         0.00000000
  -V(xc)+E(xc)   XCENC  =        33.36921367
  PAW double counting   =      1439.98163886    -1545.88690193
  entropy T*S    EENTRO =        -0.00774830
  eigenvalues    EBANDS =        43.63313723
  atomic energy  EATOM  =      1626.69043168
  Solvation  Ediel_sol  =         0.00000000
  ---------------------------------------------------
  free energy    TOTEN  =       -12.75999553 eV

  energy without entropy =      -12.75224723  energy(sigma->0) =      -12.75741276


--------------------------------------------------------------------------------------------------------




--------------------------------------- Iteration      1(   5)  ---------------------------------------


     EDDAV:  cpu time      0.1514: real time      0.1524
       DOS:  cpu time      0.0009: real time      0.0009
    CHARGE:  cpu time      0.0231: real time      0.0231
    MIXING:  cpu time      0.0003: real time      0.0003
    --------------------------------------------
      LOOP:  cpu time      0.1757: real time      0.1767

 eigenvalue-minimisations  :  1632
 total energy-change (2. order) :-0.4457295E-03  (-0.4457008E-03)
 number of electron      17.9999991 magnetization       5.2044164
 augmentation part        9.0506733 magnetization       4.0119214

 Broyden mixing:
  rms(total) = 0.12719E+01    rms(broyden)= 0.12718E+01
  rms(prec ) = 0.17283E+01
  weight for this iteration     100.00

 Free energy of the ion-electron system (eV)
  ---------------------------------------------------
  alpha Z        PSCENC =        39.63868225
  Ewald energy   TEWEN  =     -1054.56880693
  -Hartree energ DENC   =      -595.60964206
  -exchange      EXHF   =         0.00000000
  -V(xc)+E(xc)   XCENC  =        33.36921367
  PAW double counting   =      1439.98163886    -1545.88690193
  entropy T*S    EENTRO =        -0.00774350
  eigenvalues    EBANDS =        43.63268670
  atomic energy  EATOM  =      1626.69043168
  Solvation  Ediel_sol  =         0.00000000
  ---------------------------------------------------
  free energy    TOTEN  =       -12.76044126 eV

  energy without entropy =      -12.75269776  energy(sigma->0) =      -12.75786009


--------------------------------------------------------------------------------------------------------




--------------------------------------- Iteration      1(   6)  ---------------------------------------


    POTLOK:  cpu time      0.0071: real time      0.0073
    SETDIJ:  cpu time      0.0048: real time      0.0048
     EDDAV:  cpu time      0.1412: real time      0.1420
       DOS:  cpu time      0.0009: real time      0.0009
    CHARGE:  cpu time      0.0225: real time      0.0226
    MIXING:  cpu time      0.0004: real time      0.0004
    --------------------------------------------
      LOOP:  cpu time      0.1769: real time      0.1779

 eigenvalue-minimisations  :  1512
 total energy-change (2. order) : 0.8503711E-01  (-0.2277083E+01)
 number of electron      17.9999989 magnetization       4.7946399
 augmentation part       11.3266203 magnetization       3.8749416

 Broyden mixing:
  rms(total) = 0.13124E+01    rms(broyden)= 0.13121E+01
  rms(prec ) = 0.15621E+01
  weight for this iteration     100.00

 eigenvalues of (default mixing * dielectric matrix)
  average eigenvalue GAMMA=   0.4133
  0.4133

 Free energy of the ion-electron system (eV)
  ---------------------------------------------------
  alpha Z        PSCENC =        39.63868225
  Ewald energy   TEWEN  =     -1054.56880693
  -Hartree energ DENC   =      -549.00358145
  -exchange      EXHF   =         0.00000000
  -V(xc)+E(xc)   XCENC  =        30.99709568
  PAW double counting   =      1468.85946527    -1563.08223375
  entropy T*S    EENTRO =         0.00768304
  eigenvalues    EBANDS =       -12.21413995
  atomic energy  EATOM  =      1626.69043168
  Solvation  Ediel_sol  =         0.00000000
  ---------------------------------------------------
  free energy    TOTEN  =       -12.67540415 eV

  energy without entropy =      -12.68308719  energy(sigma->0) =      -12.67796516


--------------------------------------------------------------------------------------------------------




--------------------------------------- Iteration      1(   7)  ---------------------------------------


    POTLOK:  cpu time      0.0069: real time      0.0071
    SETDIJ:  cpu time      0.0047: real time      0.0047
     EDDAV:  cpu time      0.1449: real time      0.1457
       DOS:  cpu time      0.0009: real time      0.0009
    CHARGE:  cpu time      0.0213: real time      0.0214
    MIXING:  cpu time      0.0003: real time      0.0003
    --------------------------------------------
      LOOP:  cpu time      0.1790: real time      0.1801

 eigenvalue-minimisations  :  1568
 total energy-change (2. order) : 0.1473243E+01  (-0.4344369E+00)
 number of electron      17.9999990 magnetization       4.4349857
 augmentation part       10.3481045 magnetization       3.5430282

 Broyden mixing:
  rms(total) = 0.34452E+00    rms(broyden)= 0.34438E+00
  rms(prec ) = 0.38721E+00
  weight for this iteration     100.00

 eigenvalues of (default mixing * dielectric matrix)
  average eigenvalue GAMMA=   0.6425
  0.7901  0.4950

 Free energy of the ion-electron system (eV)
  ---------------------------------------------------
  alpha Z        PSCENC =        39.63868225
  Ewald energy   TEWEN  =     -1054.56880693
  -Hartree energ DENC   =      -568.08516608
  -exchange      EXHF   =         0.00000000
  -V(xc)+E(xc)   XCENC  =        31.45465979
  PAW double counting   =      1528.12758009    -1630.22649204
  entropy T*S    EENTRO =        -0.00821800
  eigenvalues    EBANDS =        15.77516795
  atomic energy  EATOM  =      1626.69043168
  Solvation  Ediel_sol  =         0.00000000
  ---------------------------------------------------
  free energy    TOTEN  =       -11.20216129 eV

  energy without entropy =      -11.19394329  energy(sigma->0) =      -11.19942196


--------------------------------------------------------------------------------------------------------




--------------------------------------- Iteration      1(   8)  ---------------------------------------


    POTLOK:  cpu time      0.0069: real time      0.0071
    SETDIJ:  cpu time      0.0047: real time      0.0047
     EDDAV:  cpu time      0.1542: real time      0.1550
       DOS:  cpu time      0.0009: real time      0.0009
    CHARGE:  cpu time      0.0213: real time      0.0214
    MIXING:  cpu time      0.0003: real time      0.0004
    --------------------------------------------
      LOOP:  cpu time      0.1883: real time      0.1895

 eigenvalue-minimisations  :  1688
 total energy-change (2. order) :-0.2796777E-01  (-0.1732868E-01)
 number of electron      17.9999990 magnetization       4.1282565
 augmentation part       10.2059479 magnetization       3.3499399

 Broyden mixing:
  rms(total) = 0.19048E+00    rms(broyden)= 0.19033E+00
  rms(prec ) = 0.22969E+00
  weight for this iteration     100.00

 eigenvalues of (default mixing * dielectric matrix)
  average eigenvalue GAMMA=   0.8390
  1.3800  0.5686  0.5686

 Free energy of the ion-electron system (eV)
  ---------------------------------------------------
  alpha Z        PSCENC =        39.63868225
  Ewald energy   TEWEN  =     -1054.56880693
  -Hartree energ DENC   =      -570.21798661
  -exchange      EXHF   =         0.00000000
  -V(xc)+E(xc)   XCENC  =        31.57321088
  PAW double counting   =      1564.84755183    -1668.94874040
  entropy T*S    EENTRO =        -0.01125532
  eigenvalues    EBANDS =        19.76678358
  atomic energy  EATOM  =      1626.69043168
  Solvation  Ediel_sol  =         0.00000000
  ---------------------------------------------------
  free energy    TOTEN  =       -11.23012906 eV

  energy without entropy =      -11.21887373  energy(sigma->0) =      -11.22637728


--------------------------------------------------------------------------------------------------------




--------------------------------------- Iteration      1(   9)  ---------------------------------------


    POTLOK:  cpu time      0.0069: real time      0.0071
    SETDIJ:  cpu time      0.0047: real time      0.0047
     EDDAV:  cpu time      0.1688: real time      0.1697
       DOS:  cpu time      0.0009: real time      0.0009
    CHARGE:  cpu time      0.0220: real time      0.0221
    MIXING:  cpu time      0.0003: real time      0.0003
    --------------------------------------------
      LOOP:  cpu time      0.2037: real time      0.2049

 eigenvalue-minimisations  :  1632
 total energy-change (2. order) :-0.2048181E-01  (-0.8298438E-02)
 number of electron      17.9999989 magnetization       4.1144901
 augmentation part       10.2181439 magnetization       3.4256846

 Broyden mixing:
  rms(total) = 0.10640E+00    rms(broyden)= 0.10612E+00
  rms(prec ) = 0.12662E+00
  weight for this iteration     100.00

 eigenvalues of (default mixing * dielectric matrix)
  average eigenvalue GAMMA=   0.9133
  1.5612  0.9095  0.5913  0.5913

 Free energy of the ion-electron system (eV)
  ---------------------------------------------------
  alpha Z        PSCENC =        39.63868225
  Ewald energy   TEWEN  =     -1054.56880693
  -Hartree energ DENC   =      -568.96840953
  -exchange      EXHF   =         0.00000000
  -V(xc)+E(xc)   XCENC  =        31.53775975
  PAW double counting   =      1598.40837272    -1703.62779661
  entropy T*S    EENTRO =        -0.00650321
  eigenvalues    EBANDS =        19.64565901
  atomic energy  EATOM  =      1626.69043168
  Solvation  Ediel_sol  =         0.00000000
  ---------------------------------------------------
  free energy    TOTEN  =       -11.25061086 eV

  energy without entropy =      -11.24410765  energy(sigma->0) =      -11.24844313


--------------------------------------------------------------------------------------------------------




--------------------------------------- Iteration      1(  10)  ---------------------------------------


    POTLOK:  cpu time      0.0072: real time      0.0074
    SETDIJ:  cpu time      0.0050: real time      0.0050
     EDDAV:  cpu time      0.1495: real time      0.1503
       DOS:  cpu time      0.0009: real time      0.0009
    CHARGE:  cpu time      0.0215: real time      0.0215
    MIXING:  cpu time      0.0004: real time      0.0004
    --------------------------------------------
      LOOP:  cpu time      0.1843: real time      0.1855

 eigenvalue-minimisations  :  1608
 total energy-change (2. order) :-0.2051402E-02  (-0.1731386E-02)
 number of electron      17.9999989 magnetization       4.1408012
 augmentation part       10.2505798 magnetization       3.4576349

 Broyden mixing:
  rms(total) = 0.73269E-01    rms(broyden)= 0.73126E-01
  rms(prec ) = 0.85841E-01
  weight for this iteration     100.00

 eigenvalues of (default mixing * dielectric matrix)
  average eigenvalue GAMMA=   0.9946
  1.8770  0.9639  0.9639  0.5840  0.5840

 Free energy of the ion-electron system (eV)
  ---------------------------------------------------
  alpha Z        PSCENC =        39.63868225
  Ewald energy   TEWEN  =     -1054.56880693
  -Hartree energ DENC   =      -567.82744481
  -exchange      EXHF   =         0.00000000
  -V(xc)+E(xc)   XCENC  =        31.49957046
  PAW double counting   =      1604.38754079    -1709.79619589
  entropy T*S    EENTRO =        -0.00273663
  eigenvalues    EBANDS =        18.72629682
  atomic energy  EATOM  =      1626.69043168
  Solvation  Ediel_sol  =         0.00000000
  ---------------------------------------------------
  free energy    TOTEN  =       -11.25266227 eV

  energy without entropy =      -11.24992563  energy(sigma->0) =      -11.25175006


--------------------------------------------------------------------------------------------------------




--------------------------------------- Iteration      1(  11)  ---------------------------------------


    POTLOK:  cpu time      0.0069: real time      0.0071
    SETDIJ:  cpu time      0.0048: real time      0.0048
     EDDAV:  cpu time      0.1503: real time      0.1511
       DOS:  cpu time      0.0009: real time      0.0009
    CHARGE:  cpu time      0.0215: real time      0.0215
    MIXING:  cpu time      0.0004: real time      0.0004
    --------------------------------------------
      LOOP:  cpu time      0.1847: real time      0.1858

 eigenvalue-minimisations  :  1640
 total energy-change (2. order) : 0.4218237E-02  (-0.3389321E-03)
 number of electron      17.9999989 magnetization       4.1276218
 augmentation part       10.2539128 magnetization       3.4420544

 Broyden mixing:
  rms(total) = 0.33910E-01    rms(broyden)= 0.33801E-01
  rms(prec ) = 0.41554E-01
  weight for this iteration     100.00

 eigenvalues of (default mixing * dielectric matrix)
  average eigenvalue GAMMA=   1.0741
  2.2795  1.0918  1.0918  0.5681  0.7068  0.7068

 Free energy of the ion-electron system (eV)
  ---------------------------------------------------
  alpha Z        PSCENC =        39.63868225
  Ewald energy   TEWEN  =     -1054.56880693
  -Hartree energ DENC   =      -567.29116165
  -exchange      EXHF   =         0.00000000
  -V(xc)+E(xc)   XCENC  =        31.48484731
  PAW double counting   =      1606.95844580    -1712.65210352
  entropy T*S    EENTRO =        -0.00557863
  eigenvalues    EBANDS =        18.49679967
  atomic energy  EATOM  =      1626.69043168
  Solvation  Ediel_sol  =         0.00000000
  ---------------------------------------------------
  free energy    TOTEN  =       -11.24844403 eV

  energy without entropy =      -11.24286540  energy(sigma->0) =      -11.24658449


--------------------------------------------------------------------------------------------------------




--------------------------------------- Iteration      1(  12)  ---------------------------------------


    POTLOK:  cpu time      0.0069: real time      0.0071
    SETDIJ:  cpu time      0.0047: real time      0.0047
     EDDAV:  cpu time      0.1449: real time      0.1457
       DOS:  cpu time      0.0009: real time      0.0009
    CHARGE:  cpu time      0.0219: real time      0.0220
    MIXING:  cpu time      0.0004: real time      0.0004
    --------------------------------------------
      LOOP:  cpu time      0.1797: real time      0.1808

 eigenvalue-minimisations  :  1568
 total energy-change (2. order) : 0.1999260E-03  (-0.2397792E-03)
 number of electron      17.9999989 magnetization       4.1443756
 augmentation part       10.2697535 magnetization       3.4600816

 Broyden mixing:
  rms(total) = 0.11585E-01    rms(broyden)= 0.11561E-01
  rms(prec ) = 0.12682E-01
  weight for this iteration     100.00

 eigenvalues of (default mixing * dielectric matrix)
  average eigenvalue GAMMA=   1.0671
  2.3512  1.1665  1.1665  0.5868  0.6123  0.7932  0.7932

 Free energy of the ion-electron system (eV)
  ---------------------------------------------------
  alpha Z        PSCENC =        39.63868225
  Ewald energy   TEWEN  =     -1054.56880693
  -Hartree energ DENC   =      -566.60300826
  -exchange      EXHF   =         0.00000000
  -V(xc)+E(xc)   XCENC  =        31.47000421
  PAW double counting   =      1612.34140732    -1718.29455654
  entropy T*S    EENTRO =        -0.00538041
  eigenvalues    EBANDS =        18.08298258
  atomic energy  EATOM  =      1626.69043168
  Solvation  Ediel_sol  =         0.00000000
  ---------------------------------------------------
  free energy    TOTEN  =       -11.24824410 eV

  energy without entropy =      -11.24286370  energy(sigma->0) =      -11.24645063


--------------------------------------------------------------------------------------------------------




--------------------------------------- Iteration      1(  13)  ---------------------------------------


    POTLOK:  cpu time      0.0068: real time      0.0070
    SETDIJ:  cpu time      0.0047: real time      0.0047
     EDDAV:  cpu time      0.1410: real time      0.1418
       DOS:  cpu time      0.0009: real time      0.0009
    CHARGE:  cpu time      0.0218: real time      0.0219
    MIXING:  cpu time      0.0004: real time      0.0004
    --------------------------------------------
      LOOP:  cpu time      0.1757: real time      0.1767

 eigenvalue-minimisations  :  1512
 total energy-change (2. order) :-0.3126267E-03  (-0.2574417E-04)
 number of electron      17.9999989 magnetization       4.1595140
 augmentation part       10.2721382 magnetization       3.4710941

 Broyden mixing:
  rms(total) = 0.66503E-02    rms(broyden)= 0.66128E-02
  rms(prec ) = 0.72810E-02
  weight for this iteration     100.00

 eigenvalues of (default mixing * dielectric matrix)
  average eigenvalue GAMMA=   1.1036
  2.3465  1.5678  1.0187  1.0187  0.9789  0.5754  0.6613  0.6613

 Free energy of the ion-electron system (eV)
  ---------------------------------------------------
  alpha Z        PSCENC =        39.63868225
  Ewald energy   TEWEN  =     -1054.56880693
  -Hartree energ DENC   =      -566.48628166
  -exchange      EXHF   =         0.00000000
  -V(xc)+E(xc)   XCENC  =        31.45894815
  PAW double counting   =      1612.47473464    -1718.49147391
  entropy T*S    EENTRO =        -0.00504004
  eigenvalues    EBANDS =        18.04024909
  atomic energy  EATOM  =      1626.69043168
  Solvation  Ediel_sol  =         0.00000000
  ---------------------------------------------------
  free energy    TOTEN  =       -11.24855673 eV

  energy without entropy =      -11.24351669  energy(sigma->0) =      -11.24687672


--------------------------------------------------------------------------------------------------------




--------------------------------------- Iteration      1(  14)  ---------------------------------------


    POTLOK:  cpu time      0.0069: real time      0.0071
    SETDIJ:  cpu time      0.0047: real time      0.0047
     EDDAV:  cpu time      0.1479: real time      0.1487
       DOS:  cpu time      0.0009: real time      0.0009
    CHARGE:  cpu time      0.0219: real time      0.0220
    MIXING:  cpu time      0.0004: real time      0.0004
    --------------------------------------------
      LOOP:  cpu time      0.1827: real time      0.1838

 eigenvalue-minimisations  :  1600
 total energy-change (2. order) :-0.1810459E-03  (-0.1973203E-04)
 number of electron      17.9999989 magnetization       4.1601370
 augmentation part       10.2743400 magnetization       3.4668027

 Broyden mixing:
  rms(total) = 0.31141E-02    rms(broyden)= 0.30682E-02
  rms(prec ) = 0.34030E-02
  weight for this iteration     100.00

 eigenvalues of (default mixing * dielectric matrix)
  average eigenvalue GAMMA=   1.1355
  2.2291  2.2291  1.0482  1.0482  0.9061  0.9061  0.5760  0.6386  0.6386

 Free energy of the ion-electron system (eV)
  ---------------------------------------------------
  alpha Z        PSCENC =        39.63868225
  Ewald energy   TEWEN  =     -1054.56880693
  -Hartree energ DENC   =      -566.40702892
  -exchange      EXHF   =         0.00000000
  -V(xc)+E(xc)   XCENC  =        31.45176140
  PAW double counting   =      1612.06479168    -1718.11829797
  entropy T*S    EENTRO =        -0.00483840
  eigenvalues    EBANDS =        18.00456745
  atomic energy  EATOM  =      1626.69043168
  Solvation  Ediel_sol  =         0.00000000
  ---------------------------------------------------
  free energy    TOTEN  =       -11.24873778 eV

  energy without entropy =      -11.24389938  energy(sigma->0) =      -11.24712498


--------------------------------------------------------------------------------------------------------




--------------------------------------- Iteration      1(  15)  ---------------------------------------


    POTLOK:  cpu time      0.0069: real time      0.0071
    SETDIJ:  cpu time      0.0049: real time      0.0049
     EDDAV:  cpu time      0.1382: real time      0.1390
       DOS:  cpu time      0.0009: real time      0.0009
    CHARGE:  cpu time      0.0217: real time      0.0218
    MIXING:  cpu time      0.0004: real time      0.0004
    --------------------------------------------
      LOOP:  cpu time      0.1731: real time      0.1742

 eigenvalue-minimisations  :  1472
 total energy-change (2. order) :-0.2068645E-04  (-0.1791851E-05)
 number of electron      17.9999989 magnetization       4.1569675
 augmentation part       10.2738537 magnetization       3.4631756

 Broyden mixing:
  rms(total) = 0.18229E-02    rms(broyden)= 0.18101E-02
  rms(prec ) = 0.19597E-02
  weight for this iteration     100.00

 eigenvalues of (default mixing * dielectric matrix)
  average eigenvalue GAMMA=   1.2299
  2.8534  2.2694  1.0571  1.0571  1.2235  1.2235  0.7738  0.5735  0.6339  0.6339

 Free energy of the ion-electron system (eV)
  ---------------------------------------------------
  alpha Z        PSCENC =        39.63868225
  Ewald energy   TEWEN  =     -1054.56880693
  -Hartree energ DENC   =      -566.41214685
  -exchange      EXHF   =         0.00000000
  -V(xc)+E(xc)   XCENC  =        31.45026449
  PAW double counting   =      1611.93733038    -1717.99839711
  entropy T*S    EENTRO =        -0.00477655
  eigenvalues    EBANDS =        18.01866019
  atomic energy  EATOM  =      1626.69043168
  Solvation  Ediel_sol  =         0.00000000
  ---------------------------------------------------
  free energy    TOTEN  =       -11.24875846 eV

  energy without entropy =      -11.24398191  energy(sigma->0) =      -11.24716628


--------------------------------------------------------------------------------------------------------




--------------------------------------- Iteration      1(  16)  ---------------------------------------


    POTLOK:  cpu time      0.0069: real time      0.0071
    SETDIJ:  cpu time      0.0048: real time      0.0048
     EDDAV:  cpu time      0.1372: real time      0.1379
       DOS:  cpu time      0.0009: real time      0.0009
    CHARGE:  cpu time      0.0220: real time      0.0220
    MIXING:  cpu time      0.0005: real time      0.0005
    --------------------------------------------
      LOOP:  cpu time      0.1721: real time      0.1731

 eigenvalue-minimisations  :  1448
 total energy-change (2. order) :-0.1979155E-04  (-0.7415162E-06)
 number of electron      17.9999989 magnetization       4.1565466
 augmentation part       10.2738802 magnetization       3.4633854

 Broyden mixing:
  rms(total) = 0.67867E-03    rms(broyden)= 0.64276E-03
  rms(prec ) = 0.72225E-03
  weight for this iteration     100.00

 eigenvalues of (default mixing * dielectric matrix)
  average eigenvalue GAMMA=   1.2498
  3.1732  2.2840  1.3802  1.3802  1.0500  1.0500  0.8010  0.8010  0.5719  0.6280
  0.6280

 Free energy of the ion-electron system (eV)
  ---------------------------------------------------
  alpha Z        PSCENC =        39.63868225
  Ewald energy   TEWEN  =     -1054.56880693
  -Hartree energ DENC   =      -566.40986714
  -exchange      EXHF   =         0.00000000
  -V(xc)+E(xc)   XCENC  =        31.45080828
  PAW double counting   =      1611.99456993    -1718.05647873
  entropy T*S    EENTRO =        -0.00465171
  eigenvalues    EBANDS =        18.01653412
  atomic energy  EATOM  =      1626.69043168
  Solvation  Ediel_sol  =         0.00000000
  ---------------------------------------------------
  free energy    TOTEN  =       -11.24877825 eV

  energy without entropy =      -11.24412655  energy(sigma->0) =      -11.24722768


--------------------------------------------------------------------------------------------------------




--------------------------------------- Iteration      1(  17)  ---------------------------------------


    POTLOK:  cpu time      0.0068: real time      0.0071
    SETDIJ:  cpu time      0.0047: real time      0.0048
     EDDAV:  cpu time      0.1231: real time      0.1238
       DOS:  cpu time      0.0009: real time      0.0009
    CHARGE:  cpu time      0.0217: real time      0.0218
    MIXING:  cpu time      0.0005: real time      0.0005
    --------------------------------------------
      LOOP:  cpu time      0.1577: real time      0.1588

 eigenvalue-minimisations  :  1232
 total energy-change (2. order) :-0.3291962E-05  (-0.9310147E-07)
 number of electron      17.9999989 magnetization       4.1563546
 augmentation part       10.2737330 magnetization       3.4634721

 Broyden mixing:
  rms(total) = 0.27824E-03    rms(broyden)= 0.25733E-03
  rms(prec ) = 0.29855E-03
  weight for this iteration     100.00

 eigenvalues of (default mixing * dielectric matrix)
  average eigenvalue GAMMA=   1.2770
  3.5549  2.3571  1.7020  1.0523  1.0523  1.2635  0.9115  0.9115  0.5726  0.6863
  0.6299  0.6299

 Free energy of the ion-electron system (eV)
  ---------------------------------------------------
  alpha Z        PSCENC =        39.63868225
  Ewald energy   TEWEN  =     -1054.56880693
  -Hartree energ DENC   =      -566.41706706
  -exchange      EXHF   =         0.00000000
  -V(xc)+E(xc)   XCENC  =        31.45141930
  PAW double counting   =      1611.96869184    -1718.02638251
  entropy T*S    EENTRO =        -0.00461541
  eigenvalues    EBANDS =        18.01886530
  atomic energy  EATOM  =      1626.69043168
  Solvation  Ediel_sol  =         0.00000000
  ---------------------------------------------------
  free energy    TOTEN  =       -11.24878155 eV

  energy without entropy =      -11.24416614  energy(sigma->0) =      -11.24724308


--------------------------------------------------------------------------------------------------------




--------------------------------------- Iteration      1(  18)  ---------------------------------------


    POTLOK:  cpu time      0.0069: real time      0.0071
    SETDIJ:  cpu time      0.0047: real time      0.0047
     EDDAV:  cpu time      0.0961: real time      0.0966
       DOS:  cpu time      0.0009: real time      0.0009
    --------------------------------------------
      LOOP:  cpu time      0.1086: real time      0.1093

 eigenvalue-minimisations  :   800
 total energy-change (2. order) :-0.2898612E-06  (-0.3154297E-07)
 number of electron      17.9999989 magnetization       4.1563546
 augmentation part       10.2737330 magnetization       3.4634721

 Free energy of the ion-electron system (eV)
  ---------------------------------------------------
  alpha Z        PSCENC =        39.63868225
  Ewald energy   TEWEN  =     -1054.56880693
  -Hartree energ DENC   =      -566.42050611
  -exchange      EXHF   =         0.00000000
  -V(xc)+E(xc)   XCENC  =        31.45169663
  PAW double counting   =      1611.96338721    -1718.01886608
  entropy T*S    EENTRO =        -0.00458884
  eigenvalues    EBANDS =        18.01978835
  atomic energy  EATOM  =      1626.69043168
  Solvation  Ediel_sol  =         0.00000000
  ---------------------------------------------------
  free energy    TOTEN  =       -11.24878183 eV

  energy without entropy =      -11.24419300  energy(sigma->0) =      -11.24725222


--------------------------------------------------------------------------------------------------------




 average (electrostatic) potential at core
  the test charge radii are     1.0452
  (the norm of the test charge is              1.0000)
       1 -85.5593       2 -85.5593
 
 
 
 E-fermi :   3.0238     XC(G=0):  -9.3957     alpha+bet : -8.9999

 Fermi energy:         3.0237645631

 spin component 1

 k-point     1 :       0.0000    0.0000    0.0000
  band No.  band energies     occupation 
      1      -3.0064      1.00000
      2      -2.5462      1.00000
      3      -0.2915      1.00000
      4       0.7196      1.00000
      5       0.7196      1.00000
      6       0.7202      1.00000
      7       0.7202      1.00000
      8       0.7320      1.00000
      9       1.4260      1.00000
     10       1.4260      1.00000
     11       1.4294      1.00000
     12       1.4294      1.00000
     13       2.1368      1.00000
     14       6.4122     -0.00000
     15      10.8451      0.00000
     16      18.8006      0.00000

 k-point     2 :       0.1667   -0.0000    0.0000
  band No.  band energies     occupation 
      1      -2.0409      1.00000
      2      -1.6498      1.00000
      3       0.0004      1.00000
      4       0.4811      1.00000
      5       0.4902      1.00000
      6       0.5250      1.00000
      7       0.8049      1.00000
      8       0.9961      1.00000
      9       1.1296      1.00000
     10       1.1304      1.00000
     11       1.3455      1.00000
     12       1.3520      1.00000
     13       3.7289     -0.00000
     14       7.8473     -0.00000
     15      11.4709      0.00000
     16      19.9431      0.00000

 k-point     3 :       0.3333   -0.0000    0.0000
  band No.  band energies     occupation 
      1      -0.9034      1.00000
      2      -0.8543      1.00000
      3      -0.1978      1.00000
      4      -0.0377      1.00000
      5       0.6222      1.00000
      6       0.7874      1.00000
      7       1.1876      1.00000
      8       1.1984      1.00000
      9       1.7699      1.00000
     10       2.0281      1.00000
     11       2.0286      1.00000
     12       2.7011      1.02245
     13       6.7008     -0.00000
     14      11.0732      0.00000
     15      13.0124      0.00000
     16      14.2167      0.00000

 k-point     4 :       0.5000   -0.0000    0.0000
  band No.  band energies     occupation 
      1      -1.0426      1.00000
      2      -1.0395      1.00000
      3      -0.4401      1.00000
      4      -0.3733      1.00000
      5       0.9381      1.00000
      6       1.0329      1.00000
      7       1.1098      1.00000
      8       1.1226      1.00000
      9       2.5271      1.00125
     10       2.5272      1.00125
     11       5.2363     -0.00000
     12       5.5897     -0.00000
     13       9.2190      0.00000
     14      10.0374      0.00000
     15      10.4419      0.00000
     16      11.5784      0.00000

 k-point     5 :       0.1667    0.1667    0.0000
  band No.  band energies     occupation 
      1      -0.5301      1.00000
      2      -0.3929      1.00000
      3       0.0172      1.00000
      4       0.1081      1.00000
      5       0.1121      1.00000
      6       0.2261      1.00000
      7       0.5170      1.00000
      8       1.1313      1.00000
      9       1.1393      1.00000
     10       1.2226      1.00000
     11       2.1893      1.00000
     12       2.5777      1.00354
     13       5.8038     -0.00000
     14      10.1500      0.00000
     15      12.7773      0.00000
     16      18.2705      0.00000

 k-point     6 :       0.3333    0.1667    0.0000
  band No.  band energies     occupation 
      1      -0.4724      1.00000
      2      -0.4659      1.00000
      3      -0.2388      1.00000
      4      -0.1502      1.00000
      5       0.8295      1.00000
      6       0.8422      1.00000
      7       0.8557      1.00000
      8       0.8791      1.00000
      9       1.3621      1.00000
     10       1.5246      1.00000
     11       5.1587     -0.00000
     12       5.9776     -0.00000
     13       9.4020      0.00000
     14      11.3247      0.00000
     15      12.3487      0.00000
     16      13.4048      0.00000

 k-point     7 :       0.3333    0.3333    0.0000
  band No.  band energies     occupation 
      1       0.1772      1.00000
      2       0.2140      1.00000
      3       0.2140      1.00000
      4       0.2530      1.00000
      5       0.4459      1.00000
      6       0.4613      1.00000
      7       0.4613      1.00000
      8       0.4825      1.00000
      9       0.9672      1.00000
     10       0.9672      1.00000
     11       9.6833      0.00000
     12       9.9382      0.00000
     13       9.9382      0.00000
     14      10.5891      0.00000
     15      12.0402      0.00000
     16      12.0402      0.00000

 k-point     8 :       0.0000    0.0000    0.2500
  band No.  band energies     occupation 
      1      -2.9417      1.00000
      2      -2.6156      1.00000
      3      -0.2261      1.00000
      4       0.3902      1.00000
      5       0.7196      1.00000
      6       0.7196      1.00000
      7       0.7202      1.00000
      8       0.7202      1.00000
      9       1.4265      1.00000
     10       1.4265      1.00000
     11       1.4288      1.00000
     12       1.4288      1.00000
     13       2.8072      1.03172
     14       5.5800     -0.00000
     15      11.9460      0.00000
     16      16.8527      0.00000

 k-point     9 :       0.1667   -0.0000    0.2500
  band No.  band energies     occupation 
      1      -1.9830      1.00000
      2      -1.7053      1.00000
      3       0.0512      1.00000
      4       0.4173      1.00000
      5       0.4899      1.00000
      6       0.4919      1.00000
      7       0.8117      1.00000
      8       0.9132      1.00000
      9       1.1297      1.00000
     10       1.1303      1.00000
     11       1.3465      1.00000
     12       1.3510      1.00000
     13       4.2303     -0.00000
     14       6.9138     -0.00000
     15      12.6910      0.00000
     16      17.7632      0.00000

 k-point    10 :       0.3333   -0.0000    0.2500
  band No.  band energies     occupation 
      1      -0.8963      1.00000
      2      -0.8615      1.00000
      3      -0.1804      1.00000
      4      -0.0701      1.00000
      5       0.6625      1.00000
      6       0.7749      1.00000
      7       1.1892      1.00000
      8       1.1968      1.00000
      9       1.8633      1.00000
     10       2.0282      1.00000
     11       2.0286      1.00000
     12       2.5059      1.00077
     13       7.1694     -0.00000
     14       9.9012      0.00000
     15      13.9204      0.00000
     16      14.3968      0.00000

 k-point    11 :       0.5000   -0.0000    0.2500
  band No.  band energies     occupation 
      1      -1.0424      1.00000
      2      -1.0401      1.00000
      3      -0.4315      1.00000
      4      -0.3845      1.00000
      5       0.9549      1.00000
      6       1.0222      1.00000
      7       1.1116      1.00000
      8       1.1207      1.00000
      9       2.5271      1.00125
     10       2.5272      1.00125
     11       5.2787     -0.00000
     12       5.5283     -0.00000
     13       9.2215      0.00000
     14       9.6288      0.00000
     15      11.0731      0.00000
     16      11.7733      0.00000

 k-point    12 :       0.1667    0.1667    0.2500
  band No.  band energies     occupation 
      1      -0.5083      1.00000
      2      -0.4115      1.00000
      3       0.0352      1.00000
      4       0.1087      1.00000
      5       0.1117      1.00000
      6       0.1671      1.00000
      7       0.6410      1.00000
      8       1.1251      1.00000
      9       1.1355      1.00000
     10       1.1382      1.00000
     11       2.2134      1.00000
     12       2.4627      1.00027
     13       6.2859     -0.00000
     14       9.0379      0.00000
     15      14.1649      0.00000
     16      18.3444      0.00000

 k-point    13 :       0.3333    0.1667    0.2500
  band No.  band energies     occupation 
      1      -0.4717      1.00000
      2      -0.4673      1.00000
      3      -0.2273      1.00000
      4      -0.1651      1.00000
      5       0.8310      1.00000
      6       0.8478      1.00000
      7       0.8557      1.00000
      8       0.8788      1.00000
      9       1.3854      1.00000
     10       1.5008      1.00000
     11       5.2420     -0.00000
     12       5.8021     -0.00000
     13       9.8344      0.00000
     14      11.3648      0.00000
     15      12.1047      0.00000
     16      12.6663      0.00000

 k-point    14 :       0.3333    0.3333    0.2500
  band No.  band energies     occupation 
      1       0.1870      1.00000
      2       0.2124      1.00000
      3       0.2124      1.00000
      4       0.2400      1.00000
      5       0.4530      1.00000
      6       0.4625      1.00000
      7       0.4625      1.00000
      8       0.4784      1.00000
      9       0.9680      1.00000
     10       0.9680      1.00000
     11       9.7877      0.00000
     12       9.9635      0.00000
     13       9.9635      0.00000
     14      10.4160      0.00000
     15      11.7916      0.00000
     16      11.7916      0.00000

 k-point    15 :       0.0000    0.0000    0.5000
  band No.  band energies     occupation 
      1      -2.7811      1.00000
      2      -2.7810      1.00000
      3      -0.0090      1.00000
      4      -0.0090      1.00000
      5       0.7199      1.00000
      6       0.7199      1.00000
      7       0.7199      1.00000
      8       0.7199      1.00000
      9       1.4277      1.00000
     10       1.4277      1.00000
     11       1.4277      1.00000
     12       1.4277      1.00000
     13       4.1202     -0.00000
     14       4.1202     -0.00000
     15      14.2120      0.00000
     16      14.2120      0.00000

 k-point    16 :       0.1667   -0.0000    0.5000
  band No.  band energies     occupation 
      1      -1.8430      1.00000
      2      -1.8430      1.00000
      3       0.2067      1.00000
      4       0.2067      1.00000
      5       0.4897      1.00000
      6       0.4897      1.00000
      7       0.8385      1.00000
      8       0.8385      1.00000
      9       1.1300      1.00000
     10       1.1300      1.00000
     11       1.3488      1.00000
     12       1.3488      1.00000
     13       5.4314     -0.00000
     14       5.4314     -0.00000
     15      15.0481      0.00000
     16      15.0481      0.00000

 k-point    17 :       0.3333   -0.0000    0.5000
  band No.  band energies     occupation 
      1      -0.8790      1.00000
      2      -0.8790      1.00000
      3      -0.1322      1.00000
      4      -0.1322      1.00000
      5       0.7318      1.00000
      6       0.7318      1.00000
      7       1.1931      1.00000
      8       1.1931      1.00000
      9       2.0284      1.00000
     10       2.0284      1.00000
     11       2.1381      1.00000
     12       2.1381      1.00000
     13       8.3483     -0.00000
     14       8.3483     -0.00000
     15      14.3850      0.00000
     16      14.3850      0.00000

 k-point    18 :       0.5000   -0.0000    0.5000
  band No.  band energies     occupation 
      1      -1.0414      1.00000
      2      -1.0414      1.00000
      3      -0.4092      1.00000
      4      -0.4092      1.00000
      5       0.9917      1.00000
      6       0.9917      1.00000
      7       1.1163      1.00000
      8       1.1163      1.00000
      9       2.5271      1.00125
     10       2.5271      1.00125
     11       5.3941     -0.00000
     12       5.3941     -0.00000
     13       9.3215      0.00000
     14       9.3215      0.00000
     15      11.7845      0.00000
     16      11.7845      0.00000

 k-point    19 :       0.1667    0.1667    0.5000
  band No.  band energies     occupation 
      1      -0.4584      1.00000
      2      -0.4584      1.00000
      3       0.0870      1.00000
      4       0.0870      1.00000
      5       0.1107      1.00000
      6       0.1107      1.00000
      7       0.8912      1.00000
      8       0.8912      1.00000
      9       1.1354      1.00000
     10       1.1354      1.00000
     11       2.2992      1.00000
     12       2.2992      1.00000
     13       7.4828     -0.00000
     14       7.4828     -0.00000
     15      16.5255      0.00000
     16      16.5255      0.00000

 k-point    20 :       0.3333    0.1667    0.5000
  band No.  band energies     occupation 
      1      -0.4699      1.00000
      2      -0.4699      1.00000
      3      -0.1979      1.00000
      4      -0.1979      1.00000
      5       0.8387      1.00000
      6       0.8387      1.00000
      7       0.8711      1.00000
      8       0.8711      1.00000
      9       1.4429      1.00000
     10       1.4429      1.00000
     11       5.4807     -0.00000
     12       5.4807     -0.00000
     13      10.8347      0.00000
     14      10.8347      0.00000
     15      11.9630      0.00000
     16      11.9630      0.00000

 k-point    21 :       0.3333    0.3333    0.5000
  band No.  band energies     occupation 
      1       0.2108      1.00000
      2       0.2108      1.00000
      3       0.2120      1.00000
      4       0.2120      1.00000
      5       0.4637      1.00000
      6       0.4637      1.00000
      7       0.4670      1.00000
      8       0.4670      1.00000
      9       0.9686      1.00000
     10       0.9686      1.00000
     11       9.9911      0.00000
     12       9.9911      0.00000
     13      10.0700      0.00000
     14      10.0700      0.00000
     15      11.6066      0.00000
     16      11.6066      0.00000
 Fermi energy:         3.0237645631

 spin component 2

 k-point     1 :       0.0000    0.0000    0.0000
  band No.  band energies     occupation 
      1      -2.7780      1.00000
      2      -2.1345      1.00000
      3       1.4961      1.00000
      4       2.1814      1.00000
      5       2.5713      1.00313
      6       2.5713      1.00313
      7       2.5721      1.00318
      8       2.5721      1.00318
      9       2.7061      1.02361
     10       3.8516     -0.00000
     11       3.8516     -0.00000
     12       3.8561     -0.00000
     13       3.8561     -0.00000
     14       6.6991     -0.00000
     15      11.1987      0.00000
     16      18.7853      0.00000

 k-point     2 :       0.1667   -0.0000    0.0000
  band No.  band energies     occupation 
      1      -1.7840      1.00000
      2      -1.1463      1.00000
      3       1.8508      1.00000
      4       1.9885      1.00000
      5       2.2526      1.00000
      6       2.2691      1.00000
      7       2.9174      0.88718
      8       2.9503      0.78887
      9       3.0290      0.47765
     10       3.0303      0.47239
     11       3.7554     -0.00000
     12       3.7644     -0.00000
     13       4.6764     -0.00000
     14       8.3927     -0.00000
     15      11.7387      0.00000
     16      19.9759      0.00000

 k-point     3 :       0.3333   -0.0000    0.0000
  band No.  band energies     occupation 
      1       0.1786      1.00000
      2       0.4047      1.00000
      3       1.6278      1.00000
      4       1.9726      1.00000
      5       2.3898      1.00003
      6       2.7660      1.03488
      7       2.8471      1.00842
      8       3.5382     -0.00083
      9       3.5674     -0.00041
     10       3.5829     -0.00028
     11       4.0476     -0.00000
     12       4.0484     -0.00000
     13       7.1710     -0.00000
     14      11.6866      0.00000
     15      13.1943      0.00000
     16      14.7124      0.00000

 k-point     4 :       0.5000   -0.0000    0.0000
  band No.  band energies     occupation 
      1       0.3527      1.00000
      2       0.3675      1.00000
      3       1.4863      1.00000
      4       1.6000      1.00000
      5       3.1915      0.00068
      6       3.3330     -0.02556
      7       3.4752     -0.00320
      8       3.4935     -0.00222
      9       4.6249     -0.00000
     10       4.6250     -0.00000
     11       5.2635     -0.00000
     12       5.6414     -0.00000
     13      10.0954      0.00000
     14      10.7394      0.00000
     15      10.9642      0.00000
     16      11.8510      0.00000

 k-point     5 :       0.1667    0.1667    0.0000
  band No.  band energies     occupation 
      1      -0.0365      1.00000
      2       0.4908      1.00000
      3       1.7672      1.00000
      4       1.7735      1.00000
      5       1.7791      1.00000
      6       2.2699      1.00000
      7       2.4464      1.00017
      8       3.2316     -0.02871
      9       3.4914     -0.00231
     10       3.5035     -0.00180
     11       4.0109     -0.00000
     12       4.1446     -0.00000
     13       6.3912     -0.00000
     14      10.7846      0.00000
     15      12.9139      0.00000
     16      18.5978      0.00000

 k-point     6 :       0.3333    0.1667    0.0000
  band No.  band energies     occupation 
      1       0.9499      1.00000
      2       0.9849      1.00000
      3       1.7050      1.00000
      4       1.8726      1.00000
      5       2.6604      1.01379
      6       2.7318      1.02939
      7       3.1282      0.11808
      8       3.1326      0.10673
      9       3.1472      0.07244
     10       3.4568     -0.00452
     11       6.1107     -0.00000
     12       6.7843     -0.00000
     13       9.7612      0.00000
     14      11.9469      0.00000
     15      12.9926      0.00000
     16      13.9721      0.00000

 k-point     7 :       0.3333    0.3333    0.0000
  band No.  band energies     occupation 
      1       1.9110      1.00000
      2       1.9420      1.00000
      3       1.9420      1.00000
      4       1.9800      1.00000
      5       2.2701      1.00000
      6       2.3321      1.00001
      7       2.3321      1.00001
      8       2.3989      1.00005
      9       3.3245     -0.02749
     10       3.3245     -0.02749
     11      10.2109      0.00000
     12      10.5086      0.00000
     13      10.5086      0.00000
     14      11.2047      0.00000
     15      12.7961      0.00000
     16      12.7961      0.00000

 k-point     8 :       0.0000    0.0000    0.2500
  band No.  band energies     occupation 
      1      -2.6970      1.00000
      2      -2.2450      1.00000
      3       1.5259      1.00000
      4       1.8715      1.00000
      5       2.5713      1.00313
      6       2.5713      1.00313
      7       2.5721      1.00318
      8       2.5721      1.00318
      9       3.3776     -0.01564
     10       3.8523     -0.00000
     11       3.8523     -0.00000
     12       3.8554     -0.00000
     13       3.8554     -0.00000
     14       5.9313     -0.00000
     15      12.2463      0.00000
     16      16.9878      0.00000

 k-point     9 :       0.1667   -0.0000    0.2500
  band No.  band energies     occupation 
      1      -1.7039      1.00000
      2      -1.2562      1.00000
      3       1.8599      1.00000
      4       1.9488      1.00000
      5       2.2574      1.00000
      6       2.2679      1.00000
      7       2.9314      0.84847
      8       2.9507      0.78750
      9       3.0292      0.47704
     10       3.0301      0.47301
     11       3.7567     -0.00000
     12       3.7631     -0.00000
     13       5.0674     -0.00000
     14       7.4831     -0.00000
     15      12.9563      0.00000
     16      17.9375      0.00000

 k-point    10 :       0.3333   -0.0000    0.2500
  band No.  band energies     occupation 
      1       0.2107      1.00000
      2       0.3705      1.00000
      3       1.6609      1.00000
      4       1.8828      1.00000
      5       2.5415      1.00170
      6       2.7676      1.03501
      7       2.8549      1.00055
      8       3.3450     -0.02278
      9       3.5697     -0.00039
     10       3.5806     -0.00030
     11       4.0476     -0.00000
     12       4.0483     -0.00000
     13       7.6377     -0.00000
     14      10.3843      0.00000
     15      14.3852      0.00000
     16      14.8739      0.00000

 k-point    11 :       0.5000   -0.0000    0.2500
[...]
      2       0.3651      1.00000
      3       1.5007      1.00000
      4       1.5805      1.00000
      5       3.2213     -0.02381
      6       3.3237     -0.02766
      7       3.4777     -0.00304
      8       3.4908     -0.00234
      9       4.6249     -0.00000
     10       4.6250     -0.00000
     11       5.2978     -0.00000
     12       5.5664     -0.00000
     13      10.0866      0.00000
     14      10.3734      0.00000
     15      11.5516      0.00000
     16      12.0535      0.00000

 k-point    12 :       0.1667    0.1667    0.2500
  band No.  band energies     occupation 
      1       0.0304      1.00000
      2       0.4000      1.00000
      3       1.7682      1.00000
      4       1.7722      1.00000
      5       1.8370      1.00000
      6       2.1397      1.00000
      7       2.6062      1.00596
      8       3.1135      0.15950
      9       3.4933     -0.00222
     10       3.5018     -0.00187
     11       4.0168     -0.00000
     12       4.0951     -0.00000
     13       6.8624     -0.00000
     14       9.5851      0.00000
     15      14.4000      0.00000
     16      18.6991      0.00000

 k-point    13 :       0.3333    0.1667    0.2500
  band No.  band energies     occupation 
      1       0.9546      1.00000
      2       0.9793      1.00000
      3       1.7251      1.00000
      4       1.8417      1.00000
      5       2.6812      1.01800
      6       2.7287      1.02873
      7       3.1236      0.13030
      8       3.1421      0.08382
      9       3.1849      0.00857
     10       3.4103     -0.00987
     11       6.1705     -0.00000
     12       6.6244     -0.00000
     13      10.2036      0.00000
     14      11.9528      0.00000
     15      12.6908      0.00000
     16      13.2186      0.00000

 k-point    14 :       0.3333    0.3333    0.2500
  band No.  band energies     occupation 
      1       1.9189      1.00000
      2       1.9431      1.00000
      3       1.9431      1.00000
      4       1.9668      1.00000
      5       2.2919      1.00000
      6       2.3292      1.00001
      7       2.3292      1.00001
      8       2.3819      1.00003
      9       3.3271     -0.02690
     10       3.3271     -0.02690
     11      10.3219      0.00000
     12      10.5263      0.00000
     13      10.5263      0.00000
     14      11.0067      0.00000
     15      12.4906      0.00000
     16      12.4906      0.00000

 k-point    15 :       0.0000    0.0000    0.5000
  band No.  band energies     occupation 
      1      -2.4854      1.00000
      2      -2.4854      1.00000
      3       1.6329      1.00000
      4       1.6329      1.00000
      5       2.5717      1.00316
      6       2.5717      1.00316
      7       2.5717      1.00316
      8       2.5717      1.00316
      9       3.8539     -0.00000
     10       3.8539     -0.00000
     11       3.8539     -0.00000
     12       3.8539     -0.00000
     13       4.5789     -0.00000
     14       4.5789     -0.00000
     15      14.4368      0.00000
     16      14.4368      0.00000

 k-point    16 :       0.1667   -0.0000    0.5000
  band No.  band energies     occupation 
      1      -1.4946      1.00000
      2      -1.4946      1.00000
      3       1.8917      1.00000
      4       1.8917      1.00000
      5       2.2640      1.00000
      6       2.2640      1.00000
      7       2.9467      0.80092
      8       2.9467      0.80091
      9       3.0297      0.47502
     10       3.0297      0.47500
     11       3.7600     -0.00000
     12       3.7600     -0.00000
     13       6.1039     -0.00000
     14       6.1039     -0.00000
     15      15.2792      0.00000
     16      15.2792      0.00000

 k-point    17 :       0.3333   -0.0000    0.5000
  band No.  band energies     occupation 
      1       0.2896      1.00000
      2       0.2896      1.00000
      3       1.7524      1.00000
      4       1.7524      1.00000
      5       2.7420      1.03144
      6       2.7420      1.03144
      7       2.9921      0.63207
      8       2.9921      0.63206
      9       3.5752     -0.00034
     10       3.5752     -0.00034
     11       4.0480     -0.00000
     12       4.0480     -0.00000
     13       8.8116      0.00000
     14       8.8116      0.00000
     15      14.9397      0.00000
     16      14.9397      0.00000

 k-point    18 :       0.5000   -0.0000    0.5000
  band No.  band energies     occupation 
      1       0.3595      1.00000
      2       0.3595      1.00000
      3       1.5382      1.00000
      4       1.5382      1.00000
      5       3.2828     -0.03477
      6       3.2828     -0.03476
      7       3.4844     -0.00266
      8       3.4844     -0.00266
      9       4.6250     -0.00000
     10       4.6250     -0.00000
     11       5.4120     -0.00000
     12       5.4120     -0.00000
     13      10.1451      0.00000
     14      10.1451      0.00000
     15      12.1457      0.00000
     16      12.1457      0.00000

 k-point    19 :       0.1667    0.1667    0.5000
  band No.  band energies     occupation 
      1       0.2039      1.00000
      2       0.2039      1.00000
      3       1.7702      1.00000
      4       1.7702      1.00000
      5       1.9727      1.00000
      6       1.9727      1.00000
      7       2.8601      0.99459
      8       2.8601      0.99459
      9       3.4974     -0.00205
     10       3.4974     -0.00205
     11       4.0400     -0.00000
     12       4.0400     -0.00000
     13       8.0323     -0.00000
     14       8.0323     -0.00000
     15      16.8088      0.00000
     16      16.8088      0.00000

 k-point    20 :       0.3333    0.1667    0.5000
  band No.  band energies     occupation 
      1       0.9665      1.00000
      2       0.9665      1.00000
      3       1.7783      1.00000
      4       1.7783      1.00000
      5       2.7131      1.02522
      6       2.7131      1.02522
      7       3.1322      0.10766
      8       3.1322      0.10765
      9       3.2966     -0.03300
     10       3.2966     -0.03300
     11       6.3533     -0.00000
     12       6.3533     -0.00000
     13      11.2366      0.00000
     14      11.2366      0.00000
     15      12.5876      0.00000
     16      12.5876      0.00000

 k-point    21 :       0.3333    0.3333    0.5000
  band No.  band energies     occupation 
      1       1.9403      1.00000
      2       1.9403      1.00000
      3       1.9441      1.00000
      4       1.9441      1.00000
      5       2.3264      1.00000
      6       2.3264      1.00000
      7       2.3392      1.00001
      8       2.3392      1.00001
      9       3.3296     -0.02634
     10       3.3296     -0.02634
     11      10.5454      0.00000
     12      10.5454      0.00000
     13      10.6251      0.00000
     14      10.6251      0.00000
     15      12.2913      0.00000
     16      12.2913      0.00000


--------------------------------------------------------------------------------------------------------


 soft charge-density along one line, spin component           1
         0         1         2         3         4         5         6         7         8         9
 total charge-density along one line
 
 soft charge-density along one line, spin component           2
         0         1         2         3         4         5         6         7         8         9
 total charge-density along one line
 
 pseudopotential strength for first ion, spin component:           1
 -5.507   0.000   0.000  -0.000   0.000  -5.963   0.000   0.000
  0.000  -5.813   0.000  -0.000   0.000   0.000  -6.258   0.000
  0.000   0.000  -5.863   0.000  -0.000   0.000   0.000  -6.307
 -0.000  -0.000   0.000  -5.813  -0.000  -0.000  -0.000   0.000
  0.000   0.000  -0.000  -0.000  -5.507   0.000   0.000  -0.000
 -5.963   0.000   0.000  -0.000   0.000  -6.366   0.000   0.000
  0.000  -6.258   0.000  -0.000   0.000   0.000  -6.651   0.000
  0.000   0.000  -6.307   0.000  -0.000   0.000   0.000  -6.699
 -0.000  -0.000   0.000  -6.258  -0.000  -0.000  -0.000   0.000
  0.000   0.000  -0.000  -0.000  -5.963   0.000   0.000  -0.000
  0.000   0.000   0.040   0.000  -0.000   0.000   0.000   0.040
  0.000   0.000   0.071   0.000  -0.000   0.000   0.000   0.070
 -0.000  -0.000  -0.000   0.000  -0.000  -0.000  -0.000  -0.000
  0.000   0.000  -0.000  -0.000   0.000   0.000   0.000  -0.000
 -0.000   0.000   0.000   0.000  -0.000  -0.000   0.000   0.000
 -0.000  -0.000  -0.000   0.000  -0.000  -0.000  -0.000  -0.000
  0.000   0.000  -0.000  -0.000   0.000   0.000   0.000  -0.000
 -0.000   0.000   0.000   0.000  -0.000  -0.000   0.000   0.000
 pseudopotential strength for first ion, spin component:           2
 -4.032  -0.000   0.000   0.000   0.000  -4.552  -0.000   0.000
 -0.000  -4.095  -0.000  -0.000  -0.000  -0.000  -4.612  -0.000
  0.000  -0.000  -4.162  -0.000  -0.000   0.000  -0.000  -4.676
  0.000  -0.000  -0.000  -4.095   0.000   0.000   0.000  -0.000
  0.000  -0.000  -0.000   0.000  -4.032   0.000  -0.000  -0.000
 -4.552  -0.000   0.000   0.000   0.000  -5.017  -0.000   0.000
 -0.000  -4.612  -0.000   0.000  -0.000  -0.000  -5.074  -0.000
  0.000  -0.000  -4.676  -0.000  -0.000   0.000  -0.000  -5.136
  0.000   0.000  -0.000  -4.612   0.000   0.000   0.000  -0.000
  0.000  -0.000  -0.000   0.000  -4.552   0.000  -0.000  -0.000
  0.000  -0.000   0.010  -0.000  -0.000   0.000  -0.000   0.009
  0.000  -0.000   0.017  -0.000  -0.000   0.000  -0.000   0.015
  0.000  -0.000   0.000   0.000   0.000   0.000  -0.000   0.000
  0.000  -0.000  -0.000   0.000   0.000   0.000  -0.000  -0.000
  0.000   0.000  -0.000   0.000   0.000   0.000   0.000  -0.000
  0.000  -0.000   0.000   0.000   0.000   0.000  -0.000   0.000
  0.000  -0.000  -0.000   0.000   0.000   0.000  -0.000  -0.000
  0.000   0.000  -0.000   0.000   0.000   0.000   0.000  -0.000
 total augmentation occupancy for first ion, spin component:           1
  2.687   0.000   0.000   0.000   0.000  -1.180   0.000  -0.000  -0.000  -0.000   0.000   0.000   0.000   0.000   0.000  -0.000
 -0.000   2.754   0.000  -0.000   0.000  -0.000  -0.960  -0.000   0.000  -0.000   0.000   0.000  -0.000   0.000   0.000  -0.000
  0.000   0.000   3.167   0.000  -0.000  -0.000  -0.000  -1.300   0.000   0.000   0.573   0.085   0.000   0.000   0.000   0.000
  0.000  -0.000  -0.000   2.754   0.000   0.000   0.000   0.000  -0.960   0.000   0.000   0.000   0.000   0.000  -0.000  -0.000
  0.000   0.000  -0.000   0.000   2.687  -0.000   0.000   0.000   0.000  -1.180  -0.000  -0.000   0.000  -0.000  -0.000  -0.000
 -1.180  -0.000  -0.000  -0.000  -0.000   1.288  -0.000   0.000   0.000   0.000  -0.000   0.000  -0.000   0.000  -0.000   0.000
  0.000  -0.960  -0.000   0.000   0.000   0.000   0.632  -0.000  -0.000   0.000   0.000  -0.000  -0.000   0.000   0.000   0.000
 -0.000  -0.000  -1.300   0.000   0.000   0.000  -0.000   0.915   0.000  -0.000  -0.855   0.015   0.000   0.000  -0.000  -0.000
  0.000   0.000   0.000  -0.960   0.000   0.000  -0.000   0.000   0.632   0.000   0.000   0.000   0.000  -0.000   0.000   0.000
 -0.000  -0.000   0.000   0.000  -1.180   0.000  -0.000  -0.000   0.000   1.288   0.000  -0.000  -0.000   0.000  -0.000   0.000
  0.000  -0.000   0.573   0.000  -0.000  -0.000   0.000  -0.855   0.000   0.000   1.745  -0.087   0.000   0.000   0.000   0.000
  0.000   0.000   0.085   0.000  -0.000   0.000   0.000   0.015   0.000  -0.000  -0.087   0.021  -0.000   0.000   0.000   0.000
  0.000   0.000   0.000  -0.000   0.000  -0.000   0.000   0.000  -0.000  -0.000  -0.000   0.000   0.249   0.000   0.000  -0.017
  0.000  -0.000   0.000   0.000  -0.000   0.000   0.000   0.000   0.000   0.000   0.000   0.000   0.000   0.061   0.000   0.000
  0.000   0.000   0.000  -0.000  -0.000  -0.000   0.000  -0.000  -0.000  -0.000   0.000   0.000   0.000   0.000   0.249  -0.000
 -0.000   0.000   0.000   0.000  -0.000   0.000   0.000   0.000   0.000   0.000   0.000   0.000  -0.017   0.000  -0.000   0.001
  0.000   0.000   0.000   0.000   0.000   0.000   0.000   0.000   0.000  -0.000   0.000   0.000   0.000  -0.004   0.000   0.000
 -0.000   0.000   0.000   0.000   0.000   0.000   0.000   0.000  -0.000   0.000   0.000  -0.000   0.000   0.000  -0.017   0.000
 total augmentation occupancy for first ion, spin component:           2
  1.987   0.000   0.000   0.000   0.000  -0.951  -0.000   0.000   0.000  -0.000  -0.000   0.000  -0.000  -0.000  -0.000   0.000
 -0.000   2.339   0.000  -0.000   0.000  -0.000  -1.077  -0.000   0.000   0.000   0.000   0.000   0.000  -0.000   0.000   0.000
  0.000   0.000   2.120   0.000  -0.000   0.000   0.000  -0.934   0.000   0.000   0.017   0.141  -0.000   0.000  -0.000   0.000
 -0.000  -0.000   0.000   2.339   0.000   0.000   0.000   0.000  -1.077   0.000   0.000   0.000   0.000   0.000   0.000   0.000
  0.000   0.000  -0.000   0.000   1.987  -0.000   0.000   0.000   0.000  -0.951   0.000  -0.000  -0.000   0.000   0.000   0.000
 -0.951  -0.000   0.000  -0.000  -0.000   0.246   0.000  -0.000  -0.000   0.000   0.000  -0.000   0.000   0.000   0.000  -0.000
 -0.000  -1.077  -0.000   0.000   0.000   0.000   0.366   0.000  -0.000  -0.000  -0.000   0.000  -0.000   0.000  -0.000   0.000
  0.000   0.000  -0.934   0.000   0.000  -0.000  -0.000   0.293   0.000   0.000   0.093  -0.081   0.000   0.000   0.000  -0.000
 -0.000   0.000   0.000  -1.077   0.000   0.000  -0.000   0.000   0.366   0.000   0.000   0.000   0.000   0.000  -0.000   0.000
 -0.000   0.000   0.000   0.000  -0.951   0.000  -0.000   0.000   0.000   0.246  -0.000   0.000   0.000   0.000  -0.000  -0.000
 -0.000  -0.000   0.017   0.000   0.000   0.000   0.000   0.093   0.000  -0.000  -0.191   0.081   0.000   0.000  -0.000   0.000
  0.000   0.000   0.141   0.000  -0.000  -0.000  -0.000  -0.081   0.000   0.000   0.081   0.002  -0.000   0.000  -0.000   0.000
 -0.000  -0.000  -0.000   0.000  -0.000   0.000   0.000  -0.000  -0.000   0.000  -0.000   0.000  -0.025   0.000   0.000   0.003
  0.000   0.000   0.000   0.000   0.000   0.000  -0.000   0.000   0.000  -0.000   0.000   0.000   0.000  -0.017   0.000   0.000
 -0.000   0.000  -0.000   0.000   0.000   0.000   0.000   0.000  -0.000  -0.000   0.000  -0.000   0.000   0.000  -0.025   0.000
  0.000   0.000   0.000  -0.000   0.000  -0.000  -0.000   0.000  -0.000  -0.000  -0.000   0.000   0.003  -0.000  -0.000  -0.000
  0.000   0.000   0.000   0.000  -0.000   0.000   0.000   0.000   0.000   0.000   0.000   0.000   0.000   0.001   0.000   0.000
  0.000  -0.000   0.000   0.000  -0.000  -0.000  -0.000  -0.000   0.000  -0.000   0.000   0.000   0.000  -0.000   0.003   0.000


------------------------ aborting loop because EDIFF is reached ----------------------------------------


    CHARGE:  cpu time      0.0217: real time      0.0218
    FORLOC:  cpu time      0.0003: real time      0.0003
    FORNL :  cpu time      0.0095: real time      0.0095
    STRESS:  cpu time      0.0261: real time      0.0262
    FORCOR:  cpu time      0.0065: real time      0.0066
    FORHAR:  cpu time      0.0006: real time      0.0006
    MIXING:  cpu time      0.0004: real time      0.0004
    OFIELD:  cpu time      0.0000: real time      0.0000

  FORCE on cell =-STRESS in cart. coord.  units (eV):
  Direction    XX          YY          ZZ          XY          YZ          ZX
  --------------------------------------------------------------------------------------
  Alpha Z    39.63868    39.63868    39.63868
  Ewald     -59.61202   -59.61202  -935.34508    -0.00000     0.00000     0.00000
  Hartree   385.06569   385.06569  -203.71299    -0.00000    -0.00000    -0.00000
  E(xc)     -91.02689   -91.02690   -91.11123    -0.00000    -0.00000    -0.00000
  Local    -727.41478  -727.41490   748.22573    -0.00010    -0.00000    -0.00000
  n-local    -8.50413    -8.56399   -14.61213    -9.23575    -0.00369    -0.00928
  augment   314.11777   314.11785   307.94651     0.00007    -0.00000    -0.00000
  Kinetic   148.77256   140.91052   147.63916    10.16088     0.00809     0.05364
  Fock        0.00000     0.00000     0.00000     0.00000     0.00000     0.00000
  -------------------------------------------------------------------------------------
  Total      -2.92409    -2.92409    -1.33135     0.00000     0.00000     0.00000
  in kB    -109.60459  -109.60459   -49.90335     0.00000     0.00000     0.00000
  external pressure =      -89.70 kB  Pullay stress =        0.00 kB


 VOLUME and BASIS-vectors are now :
 -----------------------------------------------------------------------------
  energy-cutoff  :      350.00
  volume of cell :       42.74
      direct lattice vectors                 reciprocal lattice vectors
     2.470000000  0.000000000  0.000000000     0.404858300  0.233745048  0.000000000
    -1.235000000  2.139082747  0.000000000     0.000000000  0.467490097  0.000000000
     0.000000000  0.000000000  8.090000000     0.000000000  0.000000000  0.123609394

  length of vectors
     2.470000000  2.470000000  8.090000000     0.467490097  0.467490097  0.123609394


 FORCES acting on ions
    electron-ion (+dipol)            ewald-force                    non-local-force                 convergence-correction
 -----------------------------------------------------------------------------------------------
   -.477E-05 0.276E-05 0.341E-13   -.208E-13 0.254E-14 -.503E-13   -.298E-18 -.217E-18 0.000E+00   0.244E-08 -.141E-08 -.270E-12
   -.384E-05 0.222E-05 -.667E-12   -.268E-13 0.108E-13 0.503E-13   0.407E-18 0.217E-18 0.000E+00   -.252E-08 0.145E-08 0.337E-12
 -----------------------------------------------------------------------------------------------
   -.861E-05 0.497E-05 -.633E-12   -.476E-13 0.133E-13 0.000E+00   0.108E-18 0.000E+00 0.000E+00   -.744E-10 0.430E-10 0.670E-13
 
 
 POSITION                                       TOTAL-FORCE (eV/Angst)
 -----------------------------------------------------------------------------------
      0.00000      0.00000      0.00000         0.000000     -0.000000      0.000000
      0.00000      1.42606      4.04500        -0.000000      0.000000      0.000000
 -----------------------------------------------------------------------------------
    total drift:                               -0.000009      0.000005     -0.000000


--------------------------------------------------------------------------------------------------------



  FREE ENERGIE OF THE ION-ELECTRON SYSTEM (eV)
  ---------------------------------------------------
  free  energy   TOTEN  =       -11.24878183 eV

  energy  without entropy=      -11.24419300  energy(sigma->0) =      -11.24725222
 


--------------------------------------------------------------------------------------------------------


    POTLOK:  cpu time      0.0119: real time      0.0120


--------------------------------------------------------------------------------------------------------


     LOOP+:  cpu time      3.1371: real time      3.1613
    4ORBIT:  cpu time      0.0000: real time      0.0000

 total amount of memory used by VASP MPI-rank0    31681. kBytes
=======================================================================

   base      :      30000. kBytes
   nonl-proj :        354. kBytes
   fftplans  :        270. kBytes
   grid      :        661. kBytes
   one-center:         31. kBytes
   wavefun   :        365. kBytes
 
  
  
 General timing and accounting informations for this job:
 ========================================================
  
                  Total CPU time used (sec):        3.877
                            User time (sec):        3.378
                          System time (sec):        0.499
                         Elapsed time (sec):        5.796
  
                   Maximum memory used (kb):      224536.
                   Average memory used (kb):          N/A
  
                          Minor page faults:        19043
                          Major page faults:           75
                 Voluntary context switches:         2218
