 vasp.6.3.2 27Jun22 (build Aug 12 2022 00:53:59) complex                        
  
 executed on               tv2STD date 2024.12.02  16:48:25
 running   24 mpi-ranks, with    1 threads/rank
 distrk:  each k-point on   24 cores,    1 groups
 distr:  one band on NCORE=   6 cores,    4 groups


--------------------------------------------------------------------------------------------------------


 INCAR:
   SYSTEM = Co fcc
   NWRITE = 2    write-flag
   ISTART = 0    job   : 0-new, 1-cont, 2-samecut
   ICHARG = 2    charge: 0-wave, 1-file, 2-atom, >10-const
   INIWAV = 1    electr: 0-lowe 1-rand  2-diag
   ENCUT = 350     energy cutoff in eV
   PREC = Accurate      normal | accurate
   ADDGRID = .FALSE.  (use fine grid)
   NELM = 100     number of ELM steps
   EDIFF = 1E-06    energy stopping-criterion for ELM
   LREAL = .FALSE.      real-space projection (.FALSE., .TRUE., On, Auto)
   ALGO = Normal     Normal, Fast, Very_Fast
   LWAVE = .FALSE.
   LCHARG = .FALSE.
   NSW = 0       max number of geometry steps
   IBRION = -1     ionic relax: 0-MD, 1-quasi-Newton, 2-CG, 3-Damped MD
   EDIFFG = -0.02  force (eV/A) stopping-criterion for geometry steps
   ISIF = 2     (1:force\=y stress\=trace only ions\=y shape\=n volume\=n)
   ISYM = 1     (1-use symmetry, 0-no symmetry)
   ISMEAR = 1     (-1-Fermi, 1-Methfessel/Paxton)
   SIGMA = 0.2   broadening in eV
   NPAR = 4
   ISPIN = 2
   MAGMOM = 2*3

 POTCAR:    PAW_PBE Co 02Aug2007                  
 POTCAR:    PAW_PBE Co 02Aug2007                  
   SHA256 =  0e690c60710354995174544f52f9f2c30879afabeffe3b3fbd4001cb294e56d4 Co/POTCAR             
   COPYR  = (c) Copyright 02Aug2007 Georg Kresse                                                    
   COPYR  = This file is part of the software VASP. Any use, copying, and all other rights are regul
   COPYR  = If you do not have a valid VASP license, you may not use, copy or distribute this file. 
   VRHFIN =Co: d8 s1                                                                                
   LEXCH  = PE                                                                                      
   EATOM  =   813.3670 eV,   59.7808 Ry                                                             
                                                                                                    
   TITEL  = PAW_PBE Co 02Aug2007                                                                    
   LULTRA =        F    use ultrasoft PP ?                                                          
   IUNSCR =        1    unscreen: 0-lin 1-nonlin 2-no                                               
   RPACOR =    2.000    partial core radius                                                         
   POMASS =   58.933; ZVAL   =    9.000    mass and valenz                                          
   RCORE  =    2.300    outmost cutoff radius                                                       
   RWIGS  =    2.460; RWIGS  =    1.302    wigner-seitz radius (au A)                               
   ENMAX  =  267.968; ENMIN  =  200.976 eV                                                          
   RCLOC  =    1.203    cutoff for local pot                                                        
   LCOR   =        T    correct aug charges                                                         
   LPAW   =        T    paw PP                                                                      
   EAUG   =  477.818                                                                                
   DEXC   =    0.000                                                                                
   RMAX   =    2.360    core radius for proj-oper                                                   
   RAUG   =    1.300    factor for augmentation sphere                                              
   RDEP   =    2.393    radius for radial grids                                                     
   RDEPT  =    1.864    core radius for aug-charge                                                  
                                                                                                    
   Atomic configuration                                                                             
    9 entries                                                                                       
     n  l   j            E        occ.                                                              
     1  0  0.50     -7587.6674   2.0000                                                             
     2  0  0.50      -893.6084   2.0000                                                             
     2  1  1.50      -764.5805   6.0000                                                             
     3  0  0.50       -97.5973   2.0000                                                             
     3  1  1.50       -60.9648   6.0000                                                             
     3  2  2.50        -4.2382   8.0000                                                             
     4  0  0.50        -4.3746   1.0000                                                             
     4  1  1.50        -4.0817   0.0000                                                             
     4  3  2.50        -1.3606   0.0000                                                             
   Description                                                                                      
     l       E           TYP  RCUT    TYP  RCUT                                                     
     2     -4.2382362     23  2.300                                                                 
     2     -5.5988188     23  2.300                                                                 
     0     -4.3745797     23  2.300                                                                 
     0      5.7660125     23  2.300                                                                 
     1     -2.7211652     23  2.300                                                                 
     1     16.9860234     23  2.300                                                                 
  local pseudopotential read in
  partial core-charges read in
  partial kinetic energy density read in
  atomic valenz-charges read in
  non local Contribution for L=           2  read in
    real space projection operators read in
  non local Contribution for L=           2  read in
    real space projection operators read in
  non local Contribution for L=           0  read in
    real space projection operators read in
  non local Contribution for L=           0  read in
    real space projection operators read in
  non local Contribution for L=           1  read in
    real space projection operators read in
  non local Contribution for L=           1  read in
    real space projection operators read in
    PAW grid and wavefunctions read in
 
   number of l-projection  operators is LMAX  =           6
   number of lm-projection operators is LMMAX =          18
 
  PAW_PBE Co 02Aug2007                  :
 energy of atom  1       EATOM= -813.3670
 kinetic energy error for atom=    0.0218 (will be added to EATOM!!)
 
 
 POSCAR: Co hcp
  positions in direct lattice
  No initial velocities read in
 exchange correlation table for  LEXCH =        8
   RHO(1)=    0.500       N(1)  =     2000
   RHO(2)=  100.500       N(2)  =     4000
 


--------------------------------------------------------------------------------------------------------


 ion  position               nearest neighbor table
   1  0.333  0.667  0.250-   2 2.47   2 2.47   2 2.47   2 2.47   2 2.47   2 2.47
   2  0.667  0.333  0.750-   1 2.47   1 2.47   1 2.47   1 2.47   1 2.47   1 2.47
 
  LATTYP: Found a hexagonal cell.
 ALAT       =     2.4719999032
 C/A-ratio  =     1.6266764715
  
  Lattice vectors:
  
 A1 = (   1.2359999516,  -2.1408147143,   0.0000000000)
 A2 = (   1.2359999516,   2.1408147143,   0.0000000000)
 A3 = (   0.0000000000,   0.0000000000,   4.0211440800)


Analysis of symmetry for initial positions (statically):
=====================================================================
 Subroutine PRICEL returns:
 Original cell was already a primitive cell.
 

 Routine SETGRP: Setting up the symmetry group for a 
 hexagonal supercell.


 Subroutine GETGRP returns: Found 24 space group operations
 (whereof 12 operations were pure point group operations)
 out of a pool of 24 trial point group operations.


The static configuration has the point symmetry D_3d.
 The point group associated with its full space group is D_6h.


Analysis of symmetry for dynamics (positions and initial velocities):
=====================================================================
 Subroutine PRICEL returns:
 Original cell was already a primitive cell.
 

 Routine SETGRP: Setting up the symmetry group for a 
 hexagonal supercell.


 Subroutine GETGRP returns: Found 24 space group operations
 (whereof 12 operations were pure point group operations)
 out of a pool of 24 trial point group operations.


The dynamic configuration has the point symmetry D_3d.
 The point group associated with its full space group is D_6h.


Analysis of structural, dynamic, and magnetic symmetry:
=====================================================================
 Subroutine PRICEL returns:
 Original cell was already a primitive cell.
 

 Routine SETGRP: Setting up the symmetry group for a 
 hexagonal supercell.


 Subroutine GETGRP returns: Found 24 space group operations
 (whereof 12 operations were pure point group operations)
 out of a pool of 24 trial point group operations.


The overall configuration has the point symmetry D_3d.
 The point group associated with its full space group is D_6h.


 Subroutine INISYM returns: Found 24 space group operations
 (whereof 12 operations are pure point group operations),
 and found     1 'primitive' translations


----------------------------------------------------------------------------------------

                                     Primitive cell                                     

  volume of cell :      21.2803

  direct lattice vectors                    reciprocal lattice vectors
     1.235999952 -2.140814714  0.000000000     0.404530760 -0.233555943  0.000000000
     1.235999952  2.140814714  0.000000000     0.404530760  0.233555943  0.000000000
     0.000000000  0.000000000  4.021144080     0.000000000  0.000000000  0.248685444

  length of vectors
     2.471999903  2.471999903  4.021144080     0.467111887  0.467111887  0.248685444

  position of ions in fractional coordinates (direct lattice)
     0.333333333  0.666666667  0.250000000
     0.666666667  0.333333333  0.750000000

  ion indices of the primitive-cell ions
   primitive index   ion index
                 1           1
                 2           2

----------------------------------------------------------------------------------------

 
 
 KPOINTS: Automatic mesh                          

Automatic generation of k-mesh.
 Grid dimensions read from file:
 generate k-points for:   10   10    8

 Generating k-lattice:

  Cartesian coordinates                     Fractional coordinates (reciprocal lattice)
     0.040453076 -0.023355594  0.000000000     0.100000000  0.000000000  0.000000000
     0.040453076  0.023355594  0.000000000     0.000000000  0.100000000  0.000000000
     0.000000000  0.000000000  0.031085680     0.000000000  0.000000000  0.125000000

  Length of vectors
     0.046711189  0.046711189  0.031085680

  Shift w.r.t. Gamma in fractional coordinates (k-lattice)
     0.000000000  0.000000000  0.000000000

 
 Subroutine IBZKPT returns following result:
 ===========================================
 
 Found     70 irreducible k-points:
 
 Following reciprocal coordinates:
            Coordinates               Weight
  0.000000  0.000000  0.000000      1.000000
  0.100000 -0.000000  0.000000      6.000000
  0.200000 -0.000000  0.000000      6.000000
  0.300000  0.000000  0.000000      6.000000
  0.400000  0.000000  0.000000      6.000000
  0.500000  0.000000  0.000000      3.000000
  0.100000  0.100000  0.000000      6.000000
  0.200000  0.100000  0.000000     12.000000
  0.300000  0.100000  0.000000     12.000000
  0.400000  0.100000  0.000000     12.000000
  0.200000  0.200000  0.000000      6.000000
  0.300000  0.200000  0.000000     12.000000
  0.400000  0.200000  0.000000      6.000000
  0.300000  0.300000  0.000000      6.000000
  0.000000  0.000000  0.125000      2.000000
  0.100000 -0.000000  0.125000     12.000000
  0.200000 -0.000000  0.125000     12.000000
  0.300000  0.000000  0.125000     12.000000
  0.400000  0.000000  0.125000     12.000000
  0.500000  0.000000  0.125000      6.000000
  0.100000  0.100000  0.125000     12.000000
  0.200000  0.100000  0.125000     24.000000
  0.300000  0.100000  0.125000     24.000000
  0.400000  0.100000  0.125000     24.000000
  0.200000  0.200000  0.125000     12.000000
  0.300000  0.200000  0.125000     24.000000
  0.400000  0.200000  0.125000     12.000000
  0.300000  0.300000  0.125000     12.000000
  0.000000  0.000000  0.250000      2.000000
  0.100000 -0.000000  0.250000     12.000000
  0.200000 -0.000000  0.250000     12.000000
  0.300000  0.000000  0.250000     12.000000
  0.400000  0.000000  0.250000     12.000000
  0.500000  0.000000  0.250000      6.000000
  0.100000  0.100000  0.250000     12.000000
  0.200000  0.100000  0.250000     24.000000
  0.300000  0.100000  0.250000     24.000000
  0.400000  0.100000  0.250000     24.000000
  0.200000  0.200000  0.250000     12.000000
  0.300000  0.200000  0.250000     24.000000
  0.400000  0.200000  0.250000     12.000000
  0.300000  0.300000  0.250000     12.000000
  0.000000  0.000000  0.375000      2.000000
  0.100000 -0.000000  0.375000     12.000000
  0.200000 -0.000000  0.375000     12.000000
  0.300000  0.000000  0.375000     12.000000
  0.400000  0.000000  0.375000     12.000000
  0.500000  0.000000  0.375000      6.000000
  0.100000  0.100000  0.375000     12.000000
  0.200000  0.100000  0.375000     24.000000
  0.300000  0.100000  0.375000     24.000000
  0.400000  0.100000  0.375000     24.000000
  0.200000  0.200000  0.375000     12.000000
  0.300000  0.200000  0.375000     24.000000
  0.400000  0.200000  0.375000     12.000000
  0.300000  0.300000  0.375000     12.000000
  0.000000  0.000000  0.500000      1.000000
  0.100000 -0.000000  0.500000      6.000000
  0.200000 -0.000000  0.500000      6.000000
  0.300000  0.000000  0.500000      6.000000
  0.400000  0.000000  0.500000      6.000000
  0.500000  0.000000  0.500000      3.000000
  0.100000  0.100000  0.500000      6.000000
  0.200000  0.100000  0.500000     12.000000
  0.300000  0.100000  0.500000     12.000000
  0.400000  0.100000  0.500000     12.000000
  0.200000  0.200000  0.500000      6.000000
  0.300000  0.200000  0.500000     12.000000
  0.400000  0.200000  0.500000      6.000000
  0.300000  0.300000  0.500000      6.000000
 
 Following cartesian coordinates:
            Coordinates               Weight
  0.000000  0.000000  0.000000      1.000000
  0.040453 -0.023356  0.000000      6.000000
  0.080906 -0.046711  0.000000      6.000000
  0.121359 -0.070067  0.000000      6.000000
  0.161812 -0.093422  0.000000      6.000000
  0.202265 -0.116778  0.000000      3.000000
  0.080906  0.000000  0.000000      6.000000
  0.121359 -0.023356  0.000000     12.000000
  0.161812 -0.046711  0.000000     12.000000
  0.202265 -0.070067  0.000000     12.000000
  0.161812  0.000000  0.000000      6.000000
  0.202265 -0.023356  0.000000     12.000000
  0.242718 -0.046711  0.000000      6.000000
  0.242718  0.000000  0.000000      6.000000
  0.000000  0.000000  0.031086      2.000000
  0.040453 -0.023356  0.031086     12.000000
  0.080906 -0.046711  0.031086     12.000000
  0.121359 -0.070067  0.031086     12.000000
  0.161812 -0.093422  0.031086     12.000000
  0.202265 -0.116778  0.031086      6.000000
  0.080906  0.000000  0.031086     12.000000
  0.121359 -0.023356  0.031086     24.000000
  0.161812 -0.046711  0.031086     24.000000
  0.202265 -0.070067  0.031086     24.000000
  0.161812  0.000000  0.031086     12.000000
  0.202265 -0.023356  0.031086     24.000000
  0.242718 -0.046711  0.031086     12.000000
  0.242718  0.000000  0.031086     12.000000
  0.000000  0.000000  0.062171      2.000000
  0.040453 -0.023356  0.062171     12.000000
  0.080906 -0.046711  0.062171     12.000000
  0.121359 -0.070067  0.062171     12.000000
  0.161812 -0.093422  0.062171     12.000000
  0.202265 -0.116778  0.062171      6.000000
  0.080906  0.000000  0.062171     12.000000
  0.121359 -0.023356  0.062171     24.000000
  0.161812 -0.046711  0.062171     24.000000
  0.202265 -0.070067  0.062171     24.000000
  0.161812  0.000000  0.062171     12.000000
  0.202265 -0.023356  0.062171     24.000000
  0.242718 -0.046711  0.062171     12.000000
  0.242718  0.000000  0.062171     12.000000
  0.000000  0.000000  0.093257      2.000000
  0.040453 -0.023356  0.093257     12.000000
  0.080906 -0.046711  0.093257     12.000000
  0.121359 -0.070067  0.093257     12.000000
  0.161812 -0.093422  0.093257     12.000000
  0.202265 -0.116778  0.093257      6.000000
  0.080906  0.000000  0.093257     12.000000
  0.121359 -0.023356  0.093257     24.000000
  0.161812 -0.046711  0.093257     24.000000
  0.202265 -0.070067  0.093257     24.000000
  0.161812  0.000000  0.093257     12.000000
  0.202265 -0.023356  0.093257     24.000000
  0.242718 -0.046711  0.093257     12.000000
  0.242718  0.000000  0.093257     12.000000
  0.000000  0.000000  0.124343      1.000000
  0.040453 -0.023356  0.124343      6.000000
  0.080906 -0.046711  0.124343      6.000000
  0.121359 -0.070067  0.124343      6.000000
  0.161812 -0.093422  0.124343      6.000000
  0.202265 -0.116778  0.124343      3.000000
  0.080906  0.000000  0.124343      6.000000
  0.121359 -0.023356  0.124343     12.000000
  0.161812 -0.046711  0.124343     12.000000
  0.202265 -0.070067  0.124343     12.000000
  0.161812  0.000000  0.124343      6.000000
  0.202265 -0.023356  0.124343     12.000000
  0.242718 -0.046711  0.124343      6.000000
  0.242718  0.000000  0.124343      6.000000
 


--------------------------------------------------------------------------------------------------------




 Dimension of arrays:
   k-points           NKPTS =     70   k-points in BZ     NKDIM =     70   number of bands    NBANDS=     16
   number of dos      NEDOS =    301   number of ions     NIONS =      2
   non local maximal  LDIM  =      6   non local SUM 2l+1 LMDIM =     18
   total plane-waves  NPLWV =   7168
   max r-space proj   IRMAX =      1   max aug-charges    IRDMAX=  13482
   dimension x,y,z NGX =    16 NGY =   16 NGZ =   28
   dimension x,y,z NGXF=    32 NGYF=   32 NGZF=   56
   support grid    NGXF=    32 NGYF=   32 NGZF=   56
   ions per type =               2
   NGX,Y,Z   is equivalent  to a cutoff of  10.76, 10.76, 11.58 a.u.
   NGXF,Y,Z  is equivalent  to a cutoff of  21.52, 21.52, 23.15 a.u.

 SYSTEM =  Co fcc                                  
 POSCAR =  Co hcp                                  

 Startparameter for this run:
   NWRITE =      2    write-flag & timer
   PREC   = accura    normal or accurate (medium, high low for compatibility)
   ISTART =      0    job   : 0-new  1-cont  2-samecut
   ICHARG =      2    charge: 1-file 2-atom 10-const
   ISPIN  =      2    spin polarized calculation?
   LNONCOLLINEAR =      F non collinear calculations
   LSORBIT =      F    spin-orbit coupling
   INIWAV =      1    electr: 0-lowe 1-rand  2-diag
   LASPH  =      F    aspherical Exc in radial PAW
 Electronic Relaxation 1
   ENCUT  =  350.0 eV  25.72 Ry    5.07 a.u.   3.77  3.77  6.13*2*pi/ulx,y,z
   ENINI  =  350.0     initial cutoff
   ENAUG  =  477.8 eV  augmentation charge cutoff
   NELM   =    100;   NELMIN=  2; NELMDL= -5     # of ELM steps 
   EDIFF  = 0.1E-05   stopping-criterion for ELM
   LREAL  =      F    real-space projection
   NLSPLINE    = F    spline interpolate recip. space projectors
   LCOMPAT=      F    compatible to vasp.4.4
   GGA_COMPAT  = T    GGA compatible to vasp.4.4-vasp.4.6
   LMAXPAW     = -100 max onsite density
   LMAXMIX     =    2 max onsite mixed and CHGCAR
   VOSKOWN=      0    Vosko Wilk Nusair interpolation
   ROPT   =    0.00000
 Ionic relaxation
   EDIFFG = -.2E-01   stopping-criterion for IOM
   NSW    =      0    number of steps for IOM
   NBLOCK =      1;   KBLOCK =      1    inner block; outer block 
   IBRION =     -1    ionic relax: 0-MD 1-quasi-New 2-CG
   NFREE  =      0    steps in history (QN), initial steepest desc. (CG)
   ISIF   =      2    stress and relaxation
   IWAVPR =     10    prediction:  0-non 1-charg 2-wave 3-comb
   ISYM   =      1    0-nonsym 1-usesym 2-fastsym
   LCORR  =      T    Harris-Foulkes like correction to forces

   POTIM  = 0.5000    time-step for ionic-motion
   TEIN   =    0.0    initial temperature
   TEBEG  =    0.0;   TEEND  =   0.0 temperature during run
   SMASS  =  -3.00    Nose mass-parameter (am)
   estimated Nose-frequenzy (Omega)   =  0.10E-29 period in steps = 0.13E+47 mass=  -0.140E-27a.u.
   SCALEE = 1.0000    scale energy and forces
   NPACO  =    256;   APACO  = 10.0  distance and # of slots for P.C.
   PSTRESS=    0.0 pullay stress

  Mass of Ions in am
   POMASS =  58.93
  Ionic Valenz
   ZVAL   =   9.00
  Atomic Wigner-Seitz radii
   RWIGS  =  -1.00
  virtual crystal weights 
   VCA    =   1.00
   NELECT =      18.0000    total number of electrons
   NUPDOWN=      -1.0000    fix difference up-down

 DOS related values:
   EMIN   =  10.00;   EMAX   =-10.00  energy-range for DOS
   EFERMI =   0.00
   ISMEAR =     1;   SIGMA  =   0.20  broadening in eV -4-tet -1-fermi 0-gaus

 Electronic relaxation 2 (details)
   IALGO  =     38    algorithm
   LDIAG  =      T    sub-space diagonalisation (order eigenvalues)
   LSUBROT=      F    optimize rotation matrix (better conditioning)
   TURBO    =      0    0=normal 1=particle mesh
   IRESTART =      0    0=no restart 2=restart with 2 vectors
   NREBOOT  =      0    no. of reboots
   NMIN     =      0    reboot dimension
   EREF     =   0.00    reference energy to select bands
   IMIX   =      4    mixing-type and parameters
     AMIX     =   0.40;   BMIX     =  1.00
     AMIX_MAG =   1.60;   BMIX_MAG =  1.00
     AMIN     =   0.10
     WC   =   100.;   INIMIX=   1;  MIXPRE=   1;  MAXMIX= -45

 Intra band minimization:
   WEIMIN = 0.0000     energy-eigenvalue tresh-hold
   EBREAK =  0.16E-07  absolut break condition
   DEPER  =   0.30     relativ break condition  

   TIME   =   0.40     timestep for ELM

  volume/ion in A,a.u.               =      10.64        71.80
  Fermi-wavevector in a.u.,A,eV,Ry     =   1.548246  2.925761 32.614055  2.397065
  Thomas-Fermi vector in A             =   2.653224
 
 Write flags
   LWAVE        =      F    write WAVECAR
   LDOWNSAMPLE  =      F    k-point downsampling of WAVECAR
   LCHARG       =      F    write CHGCAR
   LVTOT        =      F    write LOCPOT, total local potential
   LVHAR        =      F    write LOCPOT, Hartree potential only
   LELF         =      F    write electronic localiz. function (ELF)
   LORBIT       =      0    0 simple, 1 ext, 2 COOP (PROOUT), +10 PAW based schemes


 Dipole corrections
   LMONO  =      F    monopole corrections only (constant potential shift)
   LDIPOL =      F    correct potential (dipole corrections)
   IDIPOL =      0    1-x, 2-y, 3-z, 4-all directions 
   EPSILON=  1.0000000 bulk dielectric constant

 Exchange correlation treatment:
   GGA     =    --    GGA type
   LEXCH   =     8    internal setting for exchange type
   LIBXC   =     F    Libxc                    
   VOSKOWN =     0    Vosko Wilk Nusair interpolation
   LHFCALC =     F    Hartree Fock is set to
   LHFONE  =     F    Hartree Fock one center treatment
   AEXX    =    0.0000 exact exchange contribution

 Linear response parameters
   LEPSILON=     F    determine dielectric tensor
   LRPA    =     F    only Hartree local field effects (RPA)
   LNABLA  =     F    use nabla operator in PAW spheres
   LVEL    =     F    velocity operator in full k-point grid
   CSHIFT  =0.1000    complex shift for real part using Kramers Kronig
   OMEGAMAX=  -1.0    maximum frequency
   DEG_THRESHOLD= 0.2000000E-02 threshold for treating states as degnerate
   RTIME   =   -0.100 relaxation time in fs
  (WPLASMAI=    0.000 imaginary part of plasma frequency in eV, 0.658/RTIME)
   DFIELD  = 0.0000000 0.0000000 0.0000000 field for delta impulse in time
 
  Optional k-point grid parameters
   LKPOINTS_OPT  =     F    use optional k-point grid
   KPOINTS_OPT_MODE=     1    mode for optional k-point grid
 
 Orbital magnetization related:
   ORBITALMAG=     F  switch on orbital magnetization
   LCHIMAG   =     F  perturbation theory with respect to B field
   DQ        =  0.001000  dq finite difference perturbation B field
   LLRAUG    =     F  two centre corrections for induced B field



--------------------------------------------------------------------------------------------------------


 Static calculation
 charge density and potential will be updated during run
 spin polarized calculation
 Variant of blocked Davidson
 Davidson routine will perform the subspace rotation
 perform sub-space diagonalisation
    after iterative eigenvector-optimisation
 modified Broyden-mixing scheme, WC =      100.0
 initial mixing is a Kerker type mixing with AMIX =  0.4000 and BMIX =      1.0000
 Hartree-type preconditioning will be used
 using additional bands            7
 reciprocal scheme for non local part
 use partial core corrections
 calculate Harris-corrections to forces 
   (improved forces if not selfconsistent)
 use gradient corrections 
 use of overlap-Matrix (Vanderbilt PP)
 Methfessel and Paxton  Order N= 1 SIGMA  =   0.20


--------------------------------------------------------------------------------------------------------


  energy-cutoff  :      350.00
  volume of cell :       21.28
      direct lattice vectors                 reciprocal lattice vectors
     1.235999952 -2.140814714  0.000000000     0.404530760 -0.233555943  0.000000000
     1.235999952  2.140814714  0.000000000     0.404530760  0.233555943  0.000000000
     0.000000000  0.000000000  4.021144080     0.000000000  0.000000000  0.248685444

  length of vectors
     2.471999903  2.471999903  4.021144080     0.467111887  0.467111887  0.248685444


 
 k-points in units of 2pi/SCALE and weight: Automatic mesh                          
   0.00000000  0.00000000  0.00000000       0.001
   0.04045308 -0.02335559  0.00000000       0.007
   0.08090615 -0.04671119  0.00000000       0.007
   0.12135923 -0.07006678  0.00000000       0.007
   0.16181230 -0.09342238  0.00000000       0.007
   0.20226538 -0.11677797  0.00000000       0.004
   0.08090615  0.00000000  0.00000000       0.007
   0.12135923 -0.02335559  0.00000000       0.015
   0.16181230 -0.04671119  0.00000000       0.015
   0.20226538 -0.07006678  0.00000000       0.015
   0.16181230  0.00000000  0.00000000       0.007
   0.20226538 -0.02335559  0.00000000       0.015
   0.24271846 -0.04671119  0.00000000       0.007
   0.24271846  0.00000000  0.00000000       0.007
   0.00000000  0.00000000  0.03108568       0.003
   0.04045308 -0.02335559  0.03108568       0.015
   0.08090615 -0.04671119  0.03108568       0.015
   0.12135923 -0.07006678  0.03108568       0.015
   0.16181230 -0.09342238  0.03108568       0.015
   0.20226538 -0.11677797  0.03108568       0.007
   0.08090615  0.00000000  0.03108568       0.015
   0.12135923 -0.02335559  0.03108568       0.030
   0.16181230 -0.04671119  0.03108568       0.030
   0.20226538 -0.07006678  0.03108568       0.030
   0.16181230  0.00000000  0.03108568       0.015
   0.20226538 -0.02335559  0.03108568       0.030
   0.24271846 -0.04671119  0.03108568       0.015
   0.24271846  0.00000000  0.03108568       0.015
   0.00000000  0.00000000  0.06217136       0.003
   0.04045308 -0.02335559  0.06217136       0.015
   0.08090615 -0.04671119  0.06217136       0.015
   0.12135923 -0.07006678  0.06217136       0.015
   0.16181230 -0.09342238  0.06217136       0.015
   0.20226538 -0.11677797  0.06217136       0.007
   0.08090615  0.00000000  0.06217136       0.015
   0.12135923 -0.02335559  0.06217136       0.030
   0.16181230 -0.04671119  0.06217136       0.030
   0.20226538 -0.07006678  0.06217136       0.030
   0.16181230  0.00000000  0.06217136       0.015
   0.20226538 -0.02335559  0.06217136       0.030
   0.24271846 -0.04671119  0.06217136       0.015
   0.24271846  0.00000000  0.06217136       0.015
   0.00000000  0.00000000  0.09325704       0.003
   0.04045308 -0.02335559  0.09325704       0.015
   0.08090615 -0.04671119  0.09325704       0.015
   0.12135923 -0.07006678  0.09325704       0.015
   0.16181230 -0.09342238  0.09325704       0.015
   0.20226538 -0.11677797  0.09325704       0.007
   0.08090615  0.00000000  0.09325704       0.015
   0.12135923 -0.02335559  0.09325704       0.030
   0.16181230 -0.04671119  0.09325704       0.030
   0.20226538 -0.07006678  0.09325704       0.030
   0.16181230  0.00000000  0.09325704       0.015
   0.20226538 -0.02335559  0.09325704       0.030
   0.24271846 -0.04671119  0.09325704       0.015
   0.24271846  0.00000000  0.09325704       0.015
   0.00000000  0.00000000  0.12434272       0.001
   0.04045308 -0.02335559  0.12434272       0.007
   0.08090615 -0.04671119  0.12434272       0.007
   0.12135923 -0.07006678  0.12434272       0.007
   0.16181230 -0.09342238  0.12434272       0.007
   0.20226538 -0.11677797  0.12434272       0.004
   0.08090615  0.00000000  0.12434272       0.007
   0.12135923 -0.02335559  0.12434272       0.015
   0.16181230 -0.04671119  0.12434272       0.015
   0.20226538 -0.07006678  0.12434272       0.015
   0.16181230  0.00000000  0.12434272       0.007
   0.20226538 -0.02335559  0.12434272       0.015
   0.24271846 -0.04671119  0.12434272       0.007
   0.24271846  0.00000000  0.12434272       0.007
 
 k-points in reciprocal lattice and weights: Automatic mesh                          
   0.00000000  0.00000000  0.00000000       0.001
   0.10000000 -0.00000000  0.00000000       0.007
   0.20000000 -0.00000000  0.00000000       0.007
   0.30000000  0.00000000  0.00000000       0.007
   0.40000000  0.00000000  0.00000000       0.007
   0.50000000  0.00000000  0.00000000       0.004
   0.10000000  0.10000000  0.00000000       0.007
   0.20000000  0.10000000  0.00000000       0.015
   0.30000000  0.10000000  0.00000000       0.015
   0.40000000  0.10000000  0.00000000       0.015
   0.20000000  0.20000000  0.00000000       0.007
   0.30000000  0.20000000  0.00000000       0.015
   0.40000000  0.20000000  0.00000000       0.007
   0.30000000  0.30000000  0.00000000       0.007
   0.00000000  0.00000000  0.12500000       0.003
   0.10000000 -0.00000000  0.12500000       0.015
   0.20000000 -0.00000000  0.12500000       0.015
   0.30000000  0.00000000  0.12500000       0.015
   0.40000000  0.00000000  0.12500000       0.015
   0.50000000  0.00000000  0.12500000       0.007
   0.10000000  0.10000000  0.12500000       0.015
   0.20000000  0.10000000  0.12500000       0.030
   0.30000000  0.10000000  0.12500000       0.030
   0.40000000  0.10000000  0.12500000       0.030
   0.20000000  0.20000000  0.12500000       0.015
   0.30000000  0.20000000  0.12500000       0.030
   0.40000000  0.20000000  0.12500000       0.015
   0.30000000  0.30000000  0.12500000       0.015
   0.00000000  0.00000000  0.25000000       0.003
   0.10000000 -0.00000000  0.25000000       0.015
   0.20000000 -0.00000000  0.25000000       0.015
   0.30000000  0.00000000  0.25000000       0.015
   0.40000000  0.00000000  0.25000000       0.015
   0.50000000  0.00000000  0.25000000       0.007
   0.10000000  0.10000000  0.25000000       0.015
   0.20000000  0.10000000  0.25000000       0.030
   0.30000000  0.10000000  0.25000000       0.030
   0.40000000  0.10000000  0.25000000       0.030
   0.20000000  0.20000000  0.25000000       0.015
   0.30000000  0.20000000  0.25000000       0.030
   0.40000000  0.20000000  0.25000000       0.015
   0.30000000  0.30000000  0.25000000       0.015
   0.00000000  0.00000000  0.37500000       0.003
   0.10000000 -0.00000000  0.37500000       0.015
   0.20000000 -0.00000000  0.37500000       0.015
   0.30000000  0.00000000  0.37500000       0.015
   0.40000000  0.00000000  0.37500000       0.015
   0.50000000  0.00000000  0.37500000       0.007
   0.10000000  0.10000000  0.37500000       0.015
   0.20000000  0.10000000  0.37500000       0.030
   0.30000000  0.10000000  0.37500000       0.030
   0.40000000  0.10000000  0.37500000       0.030
   0.20000000  0.20000000  0.37500000       0.015
   0.30000000  0.20000000  0.37500000       0.030
   0.40000000  0.20000000  0.37500000       0.015
   0.30000000  0.30000000  0.37500000       0.015
   0.00000000  0.00000000  0.50000000       0.001
   0.10000000 -0.00000000  0.50000000       0.007
   0.20000000 -0.00000000  0.50000000       0.007
   0.30000000  0.00000000  0.50000000       0.007
   0.40000000  0.00000000  0.50000000       0.007
   0.50000000  0.00000000  0.50000000       0.004
   0.10000000  0.10000000  0.50000000       0.007
   0.20000000  0.10000000  0.50000000       0.015
   0.30000000  0.10000000  0.50000000       0.015
   0.40000000  0.10000000  0.50000000       0.015
   0.20000000  0.20000000  0.50000000       0.007
   0.30000000  0.20000000  0.50000000       0.015
   0.40000000  0.20000000  0.50000000       0.007
   0.30000000  0.30000000  0.50000000       0.007
 
 position of ions in fractional coordinates (direct lattice) 
   0.33333333  0.66666667  0.25000000
   0.66666667  0.33333333  0.75000000
 
 position of ions in cartesian coordinates  (Angst):
   1.23599995  0.71360490  1.00528602
   1.23599995 -0.71360490  3.01585806
 


--------------------------------------------------------------------------------------------------------


 k-point   1 :   0.0000 0.0000 0.0000  plane waves:     313
 k-point   2 :   0.1000-0.0000 0.0000  plane waves:     311
 k-point   3 :   0.2000-0.0000 0.0000  plane waves:     311
 k-point   4 :   0.3000 0.0000 0.0000  plane waves:     314
 k-point   5 :   0.4000 0.0000 0.0000  plane waves:     326
 k-point   6 :   0.5000 0.0000 0.0000  plane waves:     318
 k-point   7 :   0.1000 0.1000 0.0000  plane waves:     311
 k-point   8 :   0.2000 0.1000 0.0000  plane waves:     314
 k-point   9 :   0.3000 0.1000 0.0000  plane waves:     315
 k-point  10 :   0.4000 0.1000 0.0000  plane waves:     320
 k-point  11 :   0.2000 0.2000 0.0000  plane waves:     308
 k-point  12 :   0.3000 0.2000 0.0000  plane waves:     317
 k-point  13 :   0.4000 0.2000 0.0000  plane waves:     318
 k-point  14 :   0.3000 0.3000 0.0000  plane waves:     316
 k-point  15 :   0.0000 0.0000 0.1250  plane waves:     313
 k-point  16 :   0.1000-0.0000 0.1250  plane waves:     314
 k-point  17 :   0.2000-0.0000 0.1250  plane waves:     316
 k-point  18 :   0.3000 0.0000 0.1250  plane waves:     316
 k-point  19 :   0.4000 0.0000 0.1250  plane waves:     318
 k-point  20 :   0.5000 0.0000 0.1250  plane waves:     316
 k-point  21 :   0.1000 0.1000 0.1250  plane waves:     312
 k-point  22 :   0.2000 0.1000 0.1250  plane waves:     317
 k-point  23 :   0.3000 0.1000 0.1250  plane waves:     313
 k-point  24 :   0.4000 0.1000 0.1250  plane waves:     320
 k-point  25 :   0.2000 0.2000 0.1250  plane waves:     311
 k-point  26 :   0.3000 0.2000 0.1250  plane waves:     316
 k-point  27 :   0.4000 0.2000 0.1250  plane waves:     316
 k-point  28 :   0.3000 0.3000 0.1250  plane waves:     315
 k-point  29 :   0.0000 0.0000 0.2500  plane waves:     318
 k-point  30 :   0.1000-0.0000 0.2500  plane waves:     321
 k-point  31 :   0.2000-0.0000 0.2500  plane waves:     314
 k-point  32 :   0.3000 0.0000 0.2500  plane waves:     311
 k-point  33 :   0.4000 0.0000 0.2500  plane waves:     315
 k-point  34 :   0.5000 0.0000 0.2500  plane waves:     312
 k-point  35 :   0.1000 0.1000 0.2500  plane waves:     317
 k-point  36 :   0.2000 0.1000 0.2500  plane waves:     313
 k-point  37 :   0.3000 0.1000 0.2500  plane waves:     316
 k-point  38 :   0.4000 0.1000 0.2500  plane waves:     317
 k-point  39 :   0.2000 0.2000 0.2500  plane waves:     314
 k-point  40 :   0.3000 0.2000 0.2500  plane waves:     317
 k-point  41 :   0.4000 0.2000 0.2500  plane waves:     316
 k-point  42 :   0.3000 0.3000 0.2500  plane waves:     323
 k-point  43 :   0.0000 0.0000 0.3750  plane waves:     318
 k-point  44 :   0.1000-0.0000 0.3750  plane waves:     322
 k-point  45 :   0.2000-0.0000 0.3750  plane waves:     319
 k-point  46 :   0.3000 0.0000 0.3750  plane waves:     317
 k-point  47 :   0.4000 0.0000 0.3750  plane waves:     317
 k-point  48 :   0.5000 0.0000 0.3750  plane waves:     310
 k-point  49 :   0.1000 0.1000 0.3750  plane waves:     317
 k-point  50 :   0.2000 0.1000 0.3750  plane waves:     315
 k-point  51 :   0.3000 0.1000 0.3750  plane waves:     315
 k-point  52 :   0.4000 0.1000 0.3750  plane waves:     320
 k-point  53 :   0.2000 0.2000 0.3750  plane waves:     307
 k-point  54 :   0.3000 0.2000 0.3750  plane waves:     316
 k-point  55 :   0.4000 0.2000 0.3750  plane waves:     328
 k-point  56 :   0.3000 0.3000 0.3750  plane waves:     325
 k-point  57 :   0.0000 0.0000 0.5000  plane waves:     324
 k-point  58 :   0.1000-0.0000 0.5000  plane waves:     322
 k-point  59 :   0.2000-0.0000 0.5000  plane waves:     316
 k-point  60 :   0.3000 0.0000 0.5000  plane waves:     316
 k-point  61 :   0.4000 0.0000 0.5000  plane waves:     318
 k-point  62 :   0.5000 0.0000 0.5000  plane waves:     316
 k-point  63 :   0.1000 0.1000 0.5000  plane waves:     316
 k-point  64 :   0.2000 0.1000 0.5000  plane waves:     314
 k-point  65 :   0.3000 0.1000 0.5000  plane waves:     316
 k-point  66 :   0.4000 0.1000 0.5000  plane waves:     318
 k-point  67 :   0.2000 0.2000 0.5000  plane waves:     306
 k-point  68 :   0.3000 0.2000 0.5000  plane waves:     320
 k-point  69 :   0.4000 0.2000 0.5000  plane waves:     326
 k-point  70 :   0.3000 0.3000 0.5000  plane waves:     322

 maximum and minimum number of plane-waves per node :        61       43

 maximum number of plane-waves:       328
 maximum index in each direction: 
   IXMAX=    3   IYMAX=    3   IZMAX=    6
   IXMIN=   -4   IYMIN=   -4   IZMIN=   -6


 parallel 3D FFT for wavefunctions:
    minimum data exchange during FFTs selected (reduces bandwidth)
 parallel 3D FFT for charge:
    minimum data exchange during FFTs selected (reduces bandwidth)


 total amount of memory used by VASP MPI-rank0    31956. kBytes
=======================================================================

   base      :      30000. kBytes
   nonl-proj :        647. kBytes
   fftplans  :        152. kBytes
   grid      :        374. kBytes
   one-center:         31. kBytes
   wavefun   :        752. kBytes
 
     INWAV:  cpu time      0.0000: real time      0.0004
 Broyden mixing: mesh for mixing (old mesh)
   NGX =  7   NGY =  7   NGZ = 13
  (NGX  = 32   NGY  = 32   NGZ  = 56)
  gives a total of    637 points

 initial charge density was supplied:
 charge density of overlapping atoms calculated
 number of electron      18.0000000 magnetization       6.0000000
 keeping initial charge density in first step


--------------------------------------------------------------------------------------------------------


 Maximum index for augmentation-charges          938 (set IRDMAX)


--------------------------------------------------------------------------------------------------------


 First call to EWALD:  gamma=   0.640
 Maximum number of real-space cells 3x 3x 2
 Maximum number of reciprocal cells 3x 3x 4

    FEWALD:  cpu time      0.0014: real time      0.0014


--------------------------------------- Iteration      1(   1)  ---------------------------------------


    POTLOK:  cpu time      0.0059: real time      0.0061
    SETDIJ:  cpu time      0.0053: real time      0.0053
     EDDAV:  cpu time      0.4243: real time      0.4271
       DOS:  cpu time      0.0024: real time      0.0024
    --------------------------------------------
      LOOP:  cpu time      0.4379: real time      0.4409

 eigenvalue-minimisations  :  4640
 total energy-change (2. order) : 0.6150977E+02  (-0.6583188E+03)
 number of electron      18.0000000 magnetization       6.0000000
 augmentation part       18.0000000 magnetization       6.0000000

 Free energy of the ion-electron system (eV)
  ---------------------------------------------------
  alpha Z        PSCENC =        79.61870385
  Ewald energy   TEWEN  =     -1531.60263765
  -Hartree energ DENC   =      -295.86427829
  -exchange      EXHF   =         0.00000000
  -V(xc)+E(xc)   XCENC  =        35.75670985
  PAW double counting   =      1439.98163886    -1545.88690193
  entropy T*S    EENTRO =         0.00125562
  eigenvalues    EBANDS =       252.81485253
  atomic energy  EATOM  =      1626.69043168
  Solvation  Ediel_sol  =         0.00000000
  ---------------------------------------------------
  free energy    TOTEN  =        61.50977451 eV

  energy without entropy =       61.50851889  energy(sigma->0) =       61.50935597


--------------------------------------------------------------------------------------------------------




--------------------------------------- Iteration      1(   2)  ---------------------------------------


     EDDAV:  cpu time      0.3893: real time      0.3921
       DOS:  cpu time      0.0021: real time      0.0021
    --------------------------------------------
      LOOP:  cpu time      0.3914: real time      0.3942

 eigenvalue-minimisations  :  4496
 total energy-change (2. order) :-0.7550134E+02  (-0.6973926E+02)
 number of electron      18.0000000 magnetization       6.0000000
 augmentation part       18.0000000 magnetization       6.0000000

 Free energy of the ion-electron system (eV)
  ---------------------------------------------------
  alpha Z        PSCENC =        79.61870385
  Ewald energy   TEWEN  =     -1531.60263765
  -Hartree energ DENC   =      -295.86427829
  -exchange      EXHF   =         0.00000000
  -V(xc)+E(xc)   XCENC  =        35.75670985
  PAW double counting   =      1439.98163886    -1545.88690193
  entropy T*S    EENTRO =        -0.00155455
  eigenvalues    EBANDS =       177.31631866
  atomic energy  EATOM  =      1626.69043168
  Solvation  Ediel_sol  =         0.00000000
  ---------------------------------------------------
  free energy    TOTEN  =       -13.99156952 eV

  energy without entropy =      -13.99001497  energy(sigma->0) =      -13.99105134


--------------------------------------------------------------------------------------------------------




--------------------------------------- Iteration      1(   3)  ---------------------------------------


     EDDAV:  cpu time      0.4727: real time      0.4757
       DOS:  cpu time      0.0022: real time      0.0023
    --------------------------------------------
      LOOP:  cpu time      0.4750: real time      0.4779

 eigenvalue-minimisations  :  5672
 total energy-change (2. order) :-0.1588333E+01  (-0.1564641E+01)
 number of electron      18.0000000 magnetization       6.0000000
 augmentation part       18.0000000 magnetization       6.0000000

 Free energy of the ion-electron system (eV)
  ---------------------------------------------------
  alpha Z        PSCENC =        79.61870385
  Ewald energy   TEWEN  =     -1531.60263765
  -Hartree energ DENC   =      -295.86427829
  -exchange      EXHF   =         0.00000000
  -V(xc)+E(xc)   XCENC  =        35.75670985
  PAW double counting   =      1439.98163886    -1545.88690193
  entropy T*S    EENTRO =         0.00032629
  eigenvalues    EBANDS =       175.72610462
  atomic energy  EATOM  =      1626.69043168
  Solvation  Ediel_sol  =         0.00000000
  ---------------------------------------------------
  free energy    TOTEN  =       -15.57990272 eV

  energy without entropy =      -15.58022901  energy(sigma->0) =      -15.58001149


--------------------------------------------------------------------------------------------------------




--------------------------------------- Iteration      1(   4)  ---------------------------------------


     EDDAV:  cpu time      0.5146: real time      0.5176
       DOS:  cpu time      0.0022: real time      0.0022
    --------------------------------------------
      LOOP:  cpu time      0.5169: real time      0.5198

 eigenvalue-minimisations  :  6352
 total energy-change (2. order) :-0.2704221E-01  (-0.2703856E-01)
 number of electron      18.0000000 magnetization       6.0000000
 augmentation part       18.0000000 magnetization       6.0000000

 Free energy of the ion-electron system (eV)
  ---------------------------------------------------
  alpha Z        PSCENC =        79.61870385
  Ewald energy   TEWEN  =     -1531.60263765
  -Hartree energ DENC   =      -295.86427829
  -exchange      EXHF   =         0.00000000
  -V(xc)+E(xc)   XCENC  =        35.75670985
  PAW double counting   =      1439.98163886    -1545.88690193
  entropy T*S    EENTRO =         0.00034286
  eigenvalues    EBANDS =       175.69904583
  atomic energy  EATOM  =      1626.69043168
  Solvation  Ediel_sol  =         0.00000000
  ---------------------------------------------------
  free energy    TOTEN  =       -15.60694494 eV

  energy without entropy =      -15.60728780  energy(sigma->0) =      -15.60705922


--------------------------------------------------------------------------------------------------------




--------------------------------------- Iteration      1(   5)  ---------------------------------------


     EDDAV:  cpu time      0.4775: real time      0.4804
       DOS:  cpu time      0.0022: real time      0.0022
    CHARGE:  cpu time      0.0218: real time      0.0219
    MIXING:  cpu time      0.0003: real time      0.0003
    --------------------------------------------
      LOOP:  cpu time      0.5017: real time      0.5047

 eigenvalue-minimisations  :  5792
 total energy-change (2. order) :-0.1923320E-03  (-0.1923305E-03)
 number of electron      17.9999999 magnetization       3.3960864
 augmentation part        9.1736825 magnetization       2.6500698

 Broyden mixing:
  rms(total) = 0.16432E+01    rms(broyden)= 0.16431E+01
  rms(prec ) = 0.27051E+01
  weight for this iteration     100.00

 Free energy of the ion-electron system (eV)
  ---------------------------------------------------
  alpha Z        PSCENC =        79.61870385
  Ewald energy   TEWEN  =     -1531.60263765
  -Hartree energ DENC   =      -295.86427829
  -exchange      EXHF   =         0.00000000
  -V(xc)+E(xc)   XCENC  =        35.75670985
  PAW double counting   =      1439.98163886    -1545.88690193
  entropy T*S    EENTRO =         0.00034303
  eigenvalues    EBANDS =       175.69885333
  atomic energy  EATOM  =      1626.69043168
  Solvation  Ediel_sol  =         0.00000000
  ---------------------------------------------------
  free energy    TOTEN  =       -15.60713727 eV

  energy without entropy =      -15.60748030  energy(sigma->0) =      -15.60725161


--------------------------------------------------------------------------------------------------------




--------------------------------------- Iteration      1(   6)  ---------------------------------------


    POTLOK:  cpu time      0.0044: real time      0.0045
    SETDIJ:  cpu time      0.0051: real time      0.0051
     EDDAV:  cpu time      0.4161: real time      0.4184
       DOS:  cpu time      0.0024: real time      0.0024
    CHARGE:  cpu time      0.0214: real time      0.0215
    MIXING:  cpu time      0.0003: real time      0.0003
    --------------------------------------------
      LOOP:  cpu time      0.4496: real time      0.4522

 eigenvalue-minimisations  :  4840
 total energy-change (2. order) : 0.1186567E+01  (-0.1043654E+01)
 number of electron      17.9999999 magnetization       3.2680658
 augmentation part       10.6624894 magnetization       2.8683306

 Broyden mixing:
  rms(total) = 0.62972E+00    rms(broyden)= 0.62967E+00
  rms(prec ) = 0.83536E+00
  weight for this iteration     100.00

 eigenvalues of (default mixing * dielectric matrix)
  average eigenvalue GAMMA=   0.9010
  0.9010

 Free energy of the ion-electron system (eV)
  ---------------------------------------------------
  alpha Z        PSCENC =        79.61870385
  Ewald energy   TEWEN  =     -1531.60263765
  -Hartree energ DENC   =      -259.29344293
  -exchange      EXHF   =         0.00000000
  -V(xc)+E(xc)   XCENC  =        32.71970717
  PAW double counting   =      1594.82517766    -1690.81513936
  entropy T*S    EENTRO =        -0.00084336
  eigenvalues    EBANDS =       133.43747303
  atomic energy  EATOM  =      1626.69043168
  Solvation  Ediel_sol  =         0.00000000
  ---------------------------------------------------
  free energy    TOTEN  =       -14.42056991 eV

  energy without entropy =      -14.41972655  energy(sigma->0) =      -14.42028879


--------------------------------------------------------------------------------------------------------




--------------------------------------- Iteration      1(   7)  ---------------------------------------


    POTLOK:  cpu time      0.0044: real time      0.0046
    SETDIJ:  cpu time      0.0050: real time      0.0052
     EDDAV:  cpu time      0.4322: real time      0.4346
       DOS:  cpu time      0.0022: real time      0.0022
    CHARGE:  cpu time      0.0206: real time      0.0207
    MIXING:  cpu time      0.0003: real time      0.0003
    --------------------------------------------
      LOOP:  cpu time      0.4646: real time      0.4674

 eigenvalue-minimisations  :  5176
 total energy-change (2. order) : 0.3059033E+00  (-0.1373370E+00)
 number of electron      17.9999999 magnetization       3.2822930
 augmentation part       10.1647469 magnetization       2.9228555

 Broyden mixing:
  rms(total) = 0.38176E+00    rms(broyden)= 0.38176E+00
  rms(prec ) = 0.45717E+00
  weight for this iteration     100.00

 eigenvalues of (default mixing * dielectric matrix)
  average eigenvalue GAMMA=   0.7502
  1.0071  0.4933

 Free energy of the ion-electron system (eV)
  ---------------------------------------------------
  alpha Z        PSCENC =        79.61870385
  Ewald energy   TEWEN  =     -1531.60263765
  -Hartree energ DENC   =      -266.75984054
  -exchange      EXHF   =         0.00000000
  -V(xc)+E(xc)   XCENC  =        33.23197202
  PAW double counting   =      1677.79882248    -1780.62209738
  entropy T*S    EENTRO =        -0.00016173
  eigenvalues    EBANDS =       147.53014065
  atomic energy  EATOM  =      1626.69043168
  Solvation  Ediel_sol  =         0.00000000
  ---------------------------------------------------
  free energy    TOTEN  =       -14.11466663 eV

  energy without entropy =      -14.11450490  energy(sigma->0) =      -14.11461272


--------------------------------------------------------------------------------------------------------




--------------------------------------- Iteration      1(   8)  ---------------------------------------


    POTLOK:  cpu time      0.0042: real time      0.0044
    SETDIJ:  cpu time      0.0047: real time      0.0047
     EDDAV:  cpu time      0.5127: real time      0.5157
       DOS:  cpu time      0.0023: real time      0.0023
    CHARGE:  cpu time      0.0205: real time      0.0206
    MIXING:  cpu time      0.0002: real time      0.0002
    --------------------------------------------
      LOOP:  cpu time      0.5446: real time      0.5479

 eigenvalue-minimisations  :  6344
 total energy-change (2. order) : 0.2376092E-01  (-0.1947201E-02)
 number of electron      17.9999999 magnetization       3.3256127
 augmentation part       10.2043280 magnetization       2.9848051

 Broyden mixing:
  rms(total) = 0.18039E+00    rms(broyden)= 0.18039E+00
  rms(prec ) = 0.22819E+00
  weight for this iteration     100.00

 eigenvalues of (default mixing * dielectric matrix)
  average eigenvalue GAMMA=   1.0583
  1.8172  0.7923  0.5655

 Free energy of the ion-electron system (eV)
  ---------------------------------------------------
  alpha Z        PSCENC =        79.61870385
  Ewald energy   TEWEN  =     -1531.60263765
  -Hartree energ DENC   =      -264.05414915
  -exchange      EXHF   =         0.00000000
  -V(xc)+E(xc)   XCENC  =        33.16096647
  PAW double counting   =      1736.44784742    -1840.52032656
  entropy T*S    EENTRO =         0.00010555
  eigenvalues    EBANDS =       146.16815268
  atomic energy  EATOM  =      1626.69043168
  Solvation  Ediel_sol  =         0.00000000
  ---------------------------------------------------
  free energy    TOTEN  =       -14.09090571 eV

  energy without entropy =      -14.09101126  energy(sigma->0) =      -14.09094089


--------------------------------------------------------------------------------------------------------




--------------------------------------- Iteration      1(   9)  ---------------------------------------


    POTLOK:  cpu time      0.0042: real time      0.0044
    SETDIJ:  cpu time      0.0047: real time      0.0047
     EDDAV:  cpu time      0.5339: real time      0.5368
       DOS:  cpu time      0.0023: real time      0.0023
    CHARGE:  cpu time      0.0207: real time      0.0207
    MIXING:  cpu time      0.0003: real time      0.0003
    --------------------------------------------
      LOOP:  cpu time      0.5660: real time      0.5692

 eigenvalue-minimisations  :  6576
 total energy-change (2. order) : 0.1464477E-01  (-0.5379300E-03)
 number of electron      17.9999999 magnetization       3.3360670
 augmentation part       10.2424555 magnetization       3.0025181

 Broyden mixing:
  rms(total) = 0.48622E-01    rms(broyden)= 0.48621E-01
  rms(prec ) = 0.55111E-01
  weight for this iteration     100.00

 eigenvalues of (default mixing * dielectric matrix)
  average eigenvalue GAMMA=   1.1159
  2.2465  0.8041  0.8041  0.6091

 Free energy of the ion-electron system (eV)
  ---------------------------------------------------
  alpha Z        PSCENC =        79.61870385
  Ewald energy   TEWEN  =     -1531.60263765
  -Hartree energ DENC   =      -261.19703082
  -exchange      EXHF   =         0.00000000
  -V(xc)+E(xc)   XCENC  =        33.07811484
  PAW double counting   =      1802.22277710    -1907.86024454
  entropy T*S    EENTRO =         0.00037255
  eigenvalues    EBANDS =       144.97325206
  atomic energy  EATOM  =      1626.69043168
  Solvation  Ediel_sol  =         0.00000000
  ---------------------------------------------------
  free energy    TOTEN  =       -14.07626094 eV

  energy without entropy =      -14.07663349  energy(sigma->0) =      -14.07638512


--------------------------------------------------------------------------------------------------------




--------------------------------------- Iteration      1(  10)  ---------------------------------------


    POTLOK:  cpu time      0.0043: real time      0.0044
    SETDIJ:  cpu time      0.0048: real time      0.0049
     EDDAV:  cpu time      0.5054: real time      0.5083
       DOS:  cpu time      0.0022: real time      0.0022
    CHARGE:  cpu time      0.0205: real time      0.0206
    MIXING:  cpu time      0.0003: real time      0.0003
    --------------------------------------------
      LOOP:  cpu time      0.5375: real time      0.5407

 eigenvalue-minimisations  :  6224
 total energy-change (2. order) : 0.5944243E-03  (-0.8086961E-04)
 number of electron      17.9999999 magnetization       3.3251040
 augmentation part       10.2450929 magnetization       2.9821320

 Broyden mixing:
  rms(total) = 0.82956E-02    rms(broyden)= 0.82954E-02
  rms(prec ) = 0.97353E-02
  weight for this iteration     100.00

 eigenvalues of (default mixing * dielectric matrix)
  average eigenvalue GAMMA=   1.1611
  2.3363  1.0724  1.0724  0.6622  0.6622

 Free energy of the ion-electron system (eV)
  ---------------------------------------------------
  alpha Z        PSCENC =        79.61870385
  Ewald energy   TEWEN  =     -1531.60263765
  -Hartree energ DENC   =      -260.47463409
  -exchange      EXHF   =         0.00000000
  -V(xc)+E(xc)   XCENC  =        33.02651180
  PAW double counting   =      1823.91092701    -1930.18321215
  entropy T*S    EENTRO =         0.00037626
  eigenvalues    EBANDS =       144.93786678
  atomic energy  EATOM  =      1626.69043168
  Solvation  Ediel_sol  =         0.00000000
  ---------------------------------------------------
  free energy    TOTEN  =       -14.07566651 eV

  energy without entropy =      -14.07604277  energy(sigma->0) =      -14.07579193


--------------------------------------------------------------------------------------------------------




--------------------------------------- Iteration      1(  11)  ---------------------------------------


    POTLOK:  cpu time      0.0042: real time      0.0044
    SETDIJ:  cpu time      0.0047: real time      0.0047
     EDDAV:  cpu time      0.5362: real time      0.5391
       DOS:  cpu time      0.0023: real time      0.0023
    CHARGE:  cpu time      0.0204: real time      0.0205
    MIXING:  cpu time      0.0003: real time      0.0003
    --------------------------------------------
      LOOP:  cpu time      0.5682: real time      0.5713

 eigenvalue-minimisations  :  6656
 total energy-change (2. order) :-0.2353328E-04  (-0.8617954E-05)
 number of electron      17.9999999 magnetization       3.3232542
 augmentation part       10.2456442 magnetization       2.9781720

 Broyden mixing:
  rms(total) = 0.24262E-02    rms(broyden)= 0.24257E-02
  rms(prec ) = 0.34842E-02
  weight for this iteration     100.00

 eigenvalues of (default mixing * dielectric matrix)
  average eigenvalue GAMMA=   1.0947
  2.3309  1.1008  1.1008  0.6165  0.7094  0.7094

 Free energy of the ion-electron system (eV)
  ---------------------------------------------------
  alpha Z        PSCENC =        79.61870385
  Ewald energy   TEWEN  =     -1531.60263765
  -Hartree energ DENC   =      -260.40105668
  -exchange      EXHF   =         0.00000000
  -V(xc)+E(xc)   XCENC  =        33.00989960
  PAW double counting   =      1826.25307754    -1932.59488148
  entropy T*S    EENTRO =         0.00031724
  eigenvalues    EBANDS =       144.95045584
  atomic energy  EATOM  =      1626.69043168
  Solvation  Ediel_sol  =         0.00000000
  ---------------------------------------------------
  free energy    TOTEN  =       -14.07569005 eV

  energy without entropy =      -14.07600729  energy(sigma->0) =      -14.07579579


--------------------------------------------------------------------------------------------------------




--------------------------------------- Iteration      1(  12)  ---------------------------------------


    POTLOK:  cpu time      0.0042: real time      0.0044
    SETDIJ:  cpu time      0.0045: real time      0.0047
     EDDAV:  cpu time      0.4151: real time      0.4173
       DOS:  cpu time      0.0023: real time      0.0024
    CHARGE:  cpu time      0.0210: real time      0.0211
    MIXING:  cpu time      0.0003: real time      0.0003
    --------------------------------------------
      LOOP:  cpu time      0.4474: real time      0.4501

 eigenvalue-minimisations  :  4824
 total energy-change (2. order) : 0.3327102E-05  (-0.6786524E-06)
 number of electron      17.9999999 magnetization       3.3233493
 augmentation part       10.2457695 magnetization       2.9781474

 Broyden mixing:
  rms(total) = 0.13960E-02    rms(broyden)= 0.13960E-02
  rms(prec ) = 0.22390E-02
  weight for this iteration     100.00

 eigenvalues of (default mixing * dielectric matrix)
  average eigenvalue GAMMA=   1.2120
  2.3825  1.9279  1.0875  1.0875  0.7132  0.6427  0.6427

 Free energy of the ion-electron system (eV)
  ---------------------------------------------------
  alpha Z        PSCENC =        79.61870385
  Ewald energy   TEWEN  =     -1531.60263765
  -Hartree energ DENC   =      -260.37907312
  -exchange      EXHF   =         0.00000000
  -V(xc)+E(xc)   XCENC  =        33.00763423
  PAW double counting   =      1826.95356958    -1933.31154967
  entropy T*S    EENTRO =         0.00031663
  eigenvalues    EBANDS =       144.94691775
  atomic energy  EATOM  =      1626.69043168
  Solvation  Ediel_sol  =         0.00000000
  ---------------------------------------------------
  free energy    TOTEN  =       -14.07568672 eV

  energy without entropy =      -14.07600335  energy(sigma->0) =      -14.07579226


--------------------------------------------------------------------------------------------------------




--------------------------------------- Iteration      1(  13)  ---------------------------------------


    POTLOK:  cpu time      0.0044: real time      0.0045
    SETDIJ:  cpu time      0.0049: real time      0.0049
     EDDAV:  cpu time      0.3148: real time      0.3165
       DOS:  cpu time      0.0023: real time      0.0023
    --------------------------------------------
      LOOP:  cpu time      0.3264: real time      0.3283

 eigenvalue-minimisations  :  3064
 total energy-change (2. order) : 0.8168927E-06  (-0.1075854E-06)
 number of electron      17.9999999 magnetization       3.3233493
 augmentation part       10.2457695 magnetization       2.9781474

 Free energy of the ion-electron system (eV)
  ---------------------------------------------------
  alpha Z        PSCENC =        79.61870385
  Ewald energy   TEWEN  =     -1531.60263765
  -Hartree energ DENC   =      -260.33175941
  -exchange      EXHF   =         0.00000000
  -V(xc)+E(xc)   XCENC  =        33.00562138
  PAW double counting   =      1828.37676636    -1934.76443469
  entropy T*S    EENTRO =         0.00031173
  eigenvalues    EBANDS =       144.93131084
  atomic energy  EATOM  =      1626.69043168
  Solvation  Ediel_sol  =         0.00000000
  ---------------------------------------------------
  free energy    TOTEN  =       -14.07568590 eV

  energy without entropy =      -14.07599764  energy(sigma->0) =      -14.07578981


--------------------------------------------------------------------------------------------------------




 average (electrostatic) potential at core
  the test charge radii are     1.0452
  (the norm of the test charge is              1.0000)
       1 -78.0321       2 -78.0321
 
 
 
 E-fermi :  10.4973     XC(G=0): -13.5236     alpha+bet :-18.0772

 Fermi energy:        10.4973244154

 spin component 1

 k-point     1 :       0.0000    0.0000    0.0000
  band No.  band energies     occupation 
      1       1.5008      1.00000
      2       5.2852      1.00000
      3       7.8333      1.00000
      4       7.8913      1.00000
      5       7.8913      1.00000
      6       8.2053      1.00000
      7       8.2053      1.00000
      8       8.5820      1.00000
      9       8.5820      1.00000
     10       9.6905      1.00000
     11       9.6905      1.00000
     12      10.3742      0.92682
     13      16.9524      0.00000
     14      32.7557      0.00000
     15      35.5507      0.00000
     16      35.5563      0.00000

 k-point     2 :       0.1000   -0.0000    0.0000
  band No.  band energies     occupation 
      1       1.8564      1.00000
      2       5.4971      1.00000
      3       7.5873      1.00000
      4       8.0587      1.00000
      5       8.0676      1.00000
      6       8.1566      1.00000
      7       8.3116      1.00000
      8       8.3539      1.00000
      9       8.4799      1.00000
     10       8.7661      1.00000
     11       9.7322      1.00000
     12      11.8063     -0.00000
     13      17.0140      0.00000
     14      30.2330      0.00000
     15      32.8747      0.00000
     16      33.0953      0.00000

 k-point     3 :       0.2000   -0.0000    0.0000
  band No.  band energies     occupation 
      1       2.8628      1.00000
      2       5.9559      1.00000
      3       7.2751      1.00000
      4       7.3531      1.00000
      5       7.9144      1.00000
      6       8.2451      1.00000
      7       8.4373      1.00000
      8       8.5123      1.00000
      9       8.5177      1.00000
     10       8.7574      1.00000
     11       9.8102      1.00001
     12      13.8277     -0.00000
     13      17.2401      0.00000
     14      25.5903      0.00000
     15      30.0577      0.00000
     16      31.9415      0.00000

 k-point     4 :       0.3000    0.0000    0.0000
  band No.  band energies     occupation 
      1       4.2626      1.00000
      2       6.0818      1.00000
      3       6.5802      1.00000
      4       7.2550      1.00000
      5       7.9218      1.00000
      6       7.9934      1.00000
      7       8.1966      1.00000
      8       9.1296      1.00000
      9       9.1906      1.00000
     10       9.2936      1.00000
     11       9.8705      1.00004
     12      16.1186      0.00000
     13      17.5952      0.00000
     14      21.4246      0.00000
     15      27.7655      0.00000
     16      28.8782      0.00000

 k-point     5 :       0.4000    0.0000    0.0000
  band No.  band energies     occupation 
      1       5.3492      1.00000
      2       5.8601      1.00000
      3       6.1154      1.00000
      4       7.6363      1.00000
      5       7.8091      1.00000
      6       8.0137      1.00000
      7       8.1780      1.00000
      8       9.6508      1.00000
      9       9.7841      1.00000
     10       9.9021      1.00011
     11      10.4045      0.84974
     12      16.1893      0.00000
     13      18.5783      0.00000
     14      20.1287      0.00000
     15      25.4592      0.00000
     16      26.2188      0.00000

 k-point     6 :       0.5000    0.0000    0.0000
  band No.  band energies     occupation 
      1       5.6668      1.00000
      2       5.7082      1.00000
      3       5.9614      1.00000
      4       7.7421      1.00000
      5       7.9453      1.00000
      6       7.9851      1.00000
      7       8.2897      1.00000
      8       9.8484      1.00002
      9       9.9113      1.00014
     10       9.9970      1.00115
     11      11.8811     -0.00000
     12      13.9491     -0.00000
     13      20.3242      0.00000
     14      21.0033      0.00000
     15      23.4001      0.00000
     16      24.6996      0.00000

 k-point     7 :       0.1000    0.1000    0.0000
  band No.  band energies     occupation 
      1       2.5404      1.00000
      2       5.8519      1.00000
      3       7.3110      1.00000
      4       7.6402      1.00000
      5       7.9976      1.00000
      6       8.1968      1.00000
      7       8.2810      1.00000
      8       8.4002      1.00000
      9       8.6016      1.00000
     10       8.6891      1.00000
     11       9.7729      1.00000
     12      13.2616     -0.00000
     13      17.1642      0.00000
     14      27.7626      0.00000
     15      28.4490      0.00000
     16      34.6147      0.00000

 k-point     8 :       0.2000    0.1000    0.0000
  band No.  band energies     occupation 
      1       3.7755      1.00000
      2       6.2316      1.00000
      3       6.8643      1.00000
      4       7.0308      1.00000
      5       7.9002      1.00000
      6       7.9217      1.00000
      7       8.4066      1.00000
      8       8.6343      1.00000
      9       8.9854      1.00000
     10       9.3039      1.00000
     11       9.8142      1.00001
     12      15.3003     -0.00000
     13      17.5466      0.00000
     14      23.5114      0.00000
     15      26.1522      0.00000
     16      30.9068      0.00000

 k-point     9 :       0.3000    0.1000    0.0000
  band No.  band energies     occupation 
      1       5.1161      1.00000
      2       6.1110      1.00000
      3       6.3128      1.00000
      4       7.1821      1.00000
      5       7.7439      1.00000
      6       8.0665      1.00000
      7       8.1494      1.00000
      8       9.2008      1.00000
      9       9.5595      1.00000
     10       9.8420      1.00002
     11      10.1894      1.02585
     12      17.6127      0.00000
     13      17.6537      0.00000
     14      20.2381      0.00000
     15      24.5565      0.00000
     16      27.2787      0.00000

 k-point    10 :       0.4000    0.1000    0.0000
  band No.  band energies     occupation 
      1       5.7524      1.00000
      2       5.9022      1.00000
      3       6.0346      1.00000
      4       7.6383      1.00000
      5       7.6884      1.00000
      6       7.9454      1.00000
      7       8.2847      1.00000
      8       9.7319      1.00000
      9       9.8535      1.00003
     10       9.8598      1.00003
     11      11.6769     -0.00000
     12      15.0237     -0.00000
     13      20.0553      0.00000
     14      20.8649      0.00000
     15      23.5218      0.00000
     16      24.2420      0.00000

 k-point    11 :       0.2000    0.2000    0.0000
  band No.  band energies     occupation 
      1       5.0489      1.00000
      2       6.4404      1.00000
      3       6.5130      1.00000
      4       6.6807      1.00000
      5       7.6434      1.00000
      6       8.0313      1.00000
      7       8.2464      1.00000
      8       8.8387      1.00000
      9       9.5628      1.00000
     10       9.7833      1.00000
     11      10.2263      1.03327
     12      17.3466      0.00000
     13      18.1924      0.00000
     14      21.6038      0.00000
     15      22.2169      0.00000
     16      29.3019      0.00000

 k-point    12 :       0.3000    0.2000    0.0000
  band No.  band energies     occupation 
      1       6.0208      1.00000
      2       6.1725      1.00000
      3       6.3083      1.00000
      4       6.9362      1.00000
      5       7.5498      1.00000
      6       7.9819      1.00000
      7       8.2845      1.00000
      8       9.2386      1.00000
      9       9.7566      1.00000
     10       9.8582      1.00003
     11      11.6370     -0.00000
     12      17.2290      0.00000
     13      19.7485      0.00000
     14      19.9545      0.00000
     15      21.3044      0.00000
     16      26.1892      0.00000

 k-point    13 :       0.4000    0.2000    0.0000
  band No.  band energies     occupation 
      1       6.0826      1.00000
      2       6.1903      1.00000
      3       6.2179      1.00000
      4       7.2433      1.00000
      5       7.5857      1.00000
      6       7.8085      1.00000
      7       8.4106      1.00000
      8       9.5952      1.00000
      9       9.7465      1.00000
     10       9.7982      1.00000
     11      13.3437     -0.00000
     12      14.7757     -0.00000
     13      19.9736      0.00000
     14      21.6795      0.00000
     15      21.9991      0.00000
     16      23.9295      0.00000

 k-point    14 :       0.3000    0.3000    0.0000
  band No.  band energies     occupation 
      1       6.1345      1.00000
      2       6.4226      1.00000
      3       6.5818      1.00000
      4       6.8143      1.00000
      5       7.5383      1.00000
      6       7.7350      1.00000
      7       8.5064      1.00000
      8       9.4230      1.00000
      9       9.6933      1.00000
     10       9.7518      1.00000
     11      13.7679     -0.00000
     12      16.7939      0.00000
     13      16.8279      0.00000
     14      22.2282      0.00000
     15      22.4864      0.00000
     16      25.1101      0.00000

 k-point    15 :       0.0000    0.0000    0.1250
  band No.  band energies     occupation 
      1       1.6595      1.00000
      2       5.2538      1.00000
      3       7.7927      1.00000
      4       7.8511      1.00000
      5       7.8511      1.00000
      6       8.1629      1.00000
      7       8.1629      1.00000
      8       8.6783      1.00000
      9       8.6783      1.00000
     10       9.6815      1.00000
     11       9.6815      1.00000
     12       9.7649      1.00000
     13      17.8736      0.00000
     14      32.6825      0.00000
     15      34.7633      0.00000
     16      35.5674      0.00000

 k-point    16 :       0.1000   -0.0000    0.1250
  band No.  band energies     occupation 
      1       2.0114      1.00000
      2       5.4778      1.00000
      3       7.5914      1.00000
      4       7.9544      1.00000
      5       7.9873      1.00000
      6       8.0000      1.00000
      7       8.3036      1.00000
      8       8.4406      1.00000
      9       8.6060      1.00000
     10       8.7465      1.00000
     11       9.7172      1.00000
     12      11.2459     -0.00000
     13      18.0078      0.00000
     14      30.3288      0.00000
     15      33.0318      0.00000
     16      33.0361      0.00000

 k-point    17 :       0.2000   -0.0000    0.1250
  band No.  band energies     occupation 
      1       3.0023      1.00000
      2       5.9715      1.00000
      3       7.2160      1.00000
      4       7.3095      1.00000
      5       7.8451      1.00000
      6       8.2061      1.00000
      7       8.3018      1.00000
      8       8.5961      1.00000
      9       8.7113      1.00000
     10       8.7397      1.00000
     11       9.7832      1.00000
     12      12.9353     -0.00000
     13      18.4746      0.00000
     14      25.7260      0.00000
     15      30.2478      0.00000
     16      31.2144      0.00000

 k-point    18 :       0.3000    0.0000    0.1250
  band No.  band energies     occupation 
      1       4.3503      1.00000
      2       6.1146      1.00000
      3       6.5530      1.00000
      4       7.2325      1.00000
      5       7.8303      1.00000
      6       8.0379      1.00000
      7       8.3366      1.00000
      8       9.1487      1.00000
      9       9.1849      1.00000
     10       9.2480      1.00000
     11       9.8367      1.00002
     12      14.6528     -0.00000
     13      19.2690      0.00000
     14      21.5979      0.00000
     15      27.6520      0.00000
     16      27.9857      0.00000

 k-point    19 :       0.4000    0.0000    0.1250
  band No.  band energies     occupation 
      1       5.2948      1.00000
      2       5.8531      1.00000
      3       6.2987      1.00000
      4       7.2266      1.00000
      5       7.8724      1.00000
      6       8.1725      1.00000
      7       8.5428      1.00000
      8       9.6505      1.00000
      9       9.7001      1.00000
     10       9.8968      1.00009
     11      10.3195      1.00944
     12      15.4762     -0.00000
     13      18.3703      0.00000
     14      21.0860      0.00000
     15      24.5389      0.00000
     16      26.4592      0.00000

 k-point    20 :       0.5000    0.0000    0.1250
  band No.  band energies     occupation 
      1       5.4853      1.00000
      2       5.6987      1.00000
      3       6.2868      1.00000
      4       7.2522      1.00000
      5       7.8102      1.00000
      6       8.2939      1.00000
      7       8.7849      1.00000
      8       9.7733      1.00000
      9       9.8913      1.00008
     10       9.9926      1.00104
     11      11.7636     -0.00000
     12      13.8505     -0.00000
     13      19.7623      0.00000
     14      20.1381      0.00000
     15      24.5594      0.00000
     16      25.5858      0.00000

 k-point    21 :       0.1000    0.1000    0.1250
  band No.  band energies     occupation 
      1       2.6862      1.00000
      2       5.8576      1.00000
      3       7.3312      1.00000
      4       7.4595      1.00000
      5       7.9808      1.00000
      6       8.0668      1.00000
      7       8.2951      1.00000
      8       8.4524      1.00000
      9       8.7063      1.00000
     10       8.7163      1.00000
     11       9.7530      1.00000
     12      12.4797     -0.00000
     13      18.3144      0.00000
     14      27.8813      0.00000
     15      28.5973      0.00000
     16      33.5098      0.00000

 k-point    22 :       0.2000    0.1000    0.1250
  band No.  band energies     occupation 
      1       3.8919      1.00000
      2       6.2760      1.00000
      3       6.7677      1.00000
      4       7.0701      1.00000
      5       7.7794      1.00000
      6       8.0257      1.00000
      7       8.3248      1.00000
      8       8.6894      1.00000
      9       9.0630      1.00000
     10       9.2526      1.00000
     11       9.8047      1.00001
     12      14.0899     -0.00000
     13      19.0407      0.00000
     14      23.6576      0.00000
     15      26.3091      0.00000
     16      29.8263      0.00000

 k-point    23 :       0.3000    0.1000    0.1250
  band No.  band energies     occupation 
      1       5.1399      1.00000
      2       6.1424      1.00000
      3       6.3513      1.00000
      4       7.1085      1.00000
      5       7.7788      1.00000
      6       8.0979      1.00000
      7       8.2409      1.00000
      8       9.1862      1.00000
      9       9.6031      1.00000
     10       9.7104      1.00000
     11      10.2245      1.03300
     12      15.6824     -0.00000
     13      19.2238      0.00000
     14      20.9023      0.00000
     15      24.6966      0.00000
     16      26.2159      0.00000

 k-point    24 :       0.4000    0.1000    0.1250
  band No.  band energies     occupation 
      1       5.5955      1.00000
      2       5.8912      1.00000
      3       6.3425      1.00000
      4       7.1792      1.00000
      5       7.7220      1.00000
      6       8.3175      1.00000
      7       8.4215      1.00000
      8       9.6839      1.00000
      9       9.7783      1.00000
     10       9.8863      1.00007
     11      11.6599     -0.00000
     12      14.8612     -0.00000
     13      19.0880      0.00000
     14      21.2071      0.00000
     15      23.6345      0.00000
     16      24.5085      0.00000

 k-point    25 :       0.2000    0.2000    0.1250
  band No.  band energies     occupation 
      1       5.1107      1.00000
      2       6.3570      1.00000
      3       6.6277      1.00000
      4       6.7094      1.00000
      5       7.6852      1.00000
      6       8.0142      1.00000
      7       8.1803      1.00000
      8       8.8718      1.00000
      9       9.6210      1.00000
     10       9.6414      1.00000
     11      10.2952      1.02619
     12      15.6475     -0.00000
     13      20.0782      0.00000
     14      21.7562      0.00000
     15      22.4119      0.00000
     16      28.2099      0.00000

 k-point    26 :       0.3000    0.2000    0.1250
  band No.  band energies     occupation 
      1       5.9205      1.00000
      2       6.2896      1.00000
      3       6.3644      1.00000
      4       6.8970      1.00000
      5       7.6310      1.00000
      6       7.9555      1.00000
      7       8.3047      1.00000
      8       9.2474      1.00000
      9       9.6337      1.00000
     10       9.8978      1.00009
     11      11.7014     -0.00000
     12      16.7229      0.00000
     13      18.8928      0.00000
     14      20.7698      0.00000
     15      22.1131      0.00000
     16      25.2404      0.00000

 k-point    27 :       0.4000    0.2000    0.1250
  band No.  band energies     occupation 
      1       5.9276      1.00000
      2       6.2388      1.00000
      3       6.4781      1.00000
      4       7.0300      1.00000
      5       7.5566      1.00000
      6       7.9726      1.00000
      7       8.4458      1.00000
      8       9.5991      1.00000
      9       9.6124      1.00000
     10       9.8305      1.00001
     11      13.4372     -0.00000
     12      14.7710     -0.00000
     13      19.8915      0.00000
     14      20.9584      0.00000
     15      21.2456      0.00000
     16      25.1426      0.00000

 k-point    28 :       0.3000    0.3000    0.1250
  band No.  band energies     occupation 
      1       6.1618      1.00000
[...]
      2       5.9274      1.00000
      3       8.3441      1.00000
      4       8.3441      1.00000
      5       9.4646      1.00000
      6       9.4646      1.00000
      7      10.3848      0.90264
      8      10.3848      0.90264
      9      11.3808     -0.00000
     10      11.3808     -0.00000
     11      11.9634     -0.00000
     12      11.9634     -0.00000
     13      23.8260      0.00000
     14      23.8260      0.00000
     15      28.2901      0.00000
     16      28.2901      0.00000

 k-point    61 :       0.4000    0.0000    0.5000
  band No.  band energies     occupation 
      1       6.4061      1.00000
      2       6.4061      1.00000
      3       8.1720      1.00000
      4       8.1720      1.00000
      5      10.2879      1.02934
      6      10.2879      1.02934
      7      10.4951      0.50951
      8      10.4951      0.50951
      9      11.7105     -0.00000
     10      11.7105     -0.00000
     11      12.3962     -0.00000
     12      12.3962     -0.00000
     13      20.4744      0.00000
     14      20.4744      0.00000
     15      29.5733      0.00000
     16      29.5733      0.00000

 k-point    62 :       0.5000    0.0000    0.5000
  band No.  band energies     occupation 
      1       6.4926      1.00000
      2       6.4926      1.00000
      3       8.1058      1.00000
      4       8.1058      1.00000
      5      10.5033      0.47487
      6      10.5033      0.47487
      7      10.8078     -0.02528
      8      10.8078     -0.02528
      9      11.8838     -0.00000
     10      11.8838     -0.00000
     11      12.8047     -0.00000
     12      12.8047     -0.00000
     13      18.9100      0.00000
     14      18.9100      0.00000
     15      29.4927      0.00000
     16      29.4927      0.00000

 k-point    63 :       0.1000    0.1000    0.5000
  band No.  band energies     occupation 
      1       4.7306      1.00000
      2       4.7306      1.00000
      3       8.6378      1.00000
      4       8.6378      1.00000
      5       9.3187      1.00000
      6       9.3187      1.00000
      7       9.9372      1.00027
      8       9.9372      1.00027
      9      11.2478     -0.00000
     10      11.2478     -0.00000
     11      11.5559     -0.00000
     12      11.5559     -0.00000
     13      26.7431      0.00000
     14      26.7431      0.00000
     15      29.6803      0.00000
     16      29.6803      0.00000

 k-point    64 :       0.2000    0.1000    0.5000
  band No.  band energies     occupation 
      1       5.6627      1.00000
      2       5.6627      1.00000
      3       8.4543      1.00000
      4       8.4543      1.00000
      5       9.1670      1.00000
      6       9.1670      1.00000
      7      10.2779      1.03248
      8      10.2779      1.03248
      9      11.3926     -0.00000
     10      11.3926     -0.00000
     11      11.8579     -0.00000
     12      11.8579     -0.00000
     13      25.9064      0.00000
     14      25.9064      0.00000
     15      27.7231      0.00000
     16      27.7231      0.00000

 k-point    65 :       0.3000    0.1000    0.5000
  band No.  band energies     occupation 
      1       6.4119      1.00000
      2       6.4119      1.00000
      3       8.3077      1.00000
      4       8.3077      1.00000
      5       9.4508      1.00000
      6       9.4508      1.00000
      7      10.4309      0.76470
      8      10.4309      0.76470
      9      11.7130     -0.00000
     10      11.7130     -0.00000
     11      12.4307     -0.00000
     12      12.4307     -0.00000
     13      22.1880      0.00000
     14      22.1880      0.00000
     15      27.5305      0.00000
     16      27.5305      0.00000

 k-point    66 :       0.4000    0.1000    0.5000
  band No.  band energies     occupation 
      1       6.6520      1.00000
      2       6.6520      1.00000
      3       8.2111      1.00000
      4       8.2111      1.00000
      5       9.8526      1.00003
      6       9.8526      1.00003
      7      10.7248     -0.03413
      8      10.7248     -0.03413
      9      11.7647     -0.00000
     10      11.7647     -0.00000
     11      13.3998     -0.00000
     12      13.3998     -0.00000
     13      19.4329      0.00000
     14      19.4329      0.00000
     15      26.8694      0.00000
     16      26.8694      0.00000

 k-point    67 :       0.2000    0.2000    0.5000
  band No.  band energies     occupation 
      1       6.4827      1.00000
      2       6.4827      1.00000
      3       8.4258      1.00000
      4       8.4258      1.00000
      5       8.9925      1.00000
      6       8.9925      1.00000
      7      10.2993      1.02406
      8      10.2993      1.02406
      9      11.7784     -0.00000
     10      11.7784     -0.00000
     11      12.5163     -0.00000
     12      12.5163     -0.00000
     13      24.1613      0.00000
     14      24.1613      0.00000
     15      25.0659      0.00000
     16      25.0659      0.00000

 k-point    68 :       0.3000    0.2000    0.5000
  band No.  band energies     occupation 
      1       7.0059      1.00000
      2       7.0059      1.00000
      3       8.4015      1.00000
      4       8.4015      1.00000
      5       9.0411      1.00000
      6       9.0411      1.00000
      7      10.3593      0.95636
      8      10.3593      0.95636
      9      11.8022     -0.00000
     10      11.8022     -0.00000
     11      13.9836     -0.00000
     12      13.9836     -0.00000
     13      20.9724      0.00000
     14      20.9724      0.00000
     15      23.7743      0.00000
     16      23.7743      0.00000

 k-point    69 :       0.4000    0.2000    0.5000
  band No.  band energies     occupation 
      1       7.1412      1.00000
      2       7.1412      1.00000
      3       8.3938      1.00000
      4       8.3938      1.00000
      5       9.0637      1.00000
      6       9.0637      1.00000
      7      10.5410      0.32013
      8      10.5410      0.32013
      9      11.7098     -0.00000
     10      11.7098     -0.00000
     11      15.1536     -0.00000
     12      15.1536     -0.00000
     13      19.1102      0.00000
     14      19.1102      0.00000
     15      23.4179      0.00000
     16      23.4179      0.00000

 k-point    70 :       0.3000    0.3000    0.5000
  band No.  band energies     occupation 
      1       7.5822      1.00000
      2       7.5822      1.00000
      3       8.2672      1.00000
      4       8.2672      1.00000
      5       8.7819      1.00000
      6       8.7819      1.00000
      7      10.3560      0.96216
      8      10.3560      0.96216
      9      11.6912     -0.00000
     10      11.6912     -0.00000
     11      16.1233      0.00000
     12      16.1233      0.00000
     13      19.5214      0.00000
     14      19.5214      0.00000
     15      21.3859      0.00000
     16      21.3859      0.00000


--------------------------------------------------------------------------------------------------------


 soft charge-density along one line, spin component           1
         0         1         2         3         4         5         6         7         8         9
 total charge-density along one line
 
 soft charge-density along one line, spin component           2
         0         1         2         3         4         5         6         7         8         9
 total charge-density along one line
 
 pseudopotential strength for first ion, spin component:           1
 -0.457  -0.000  -0.000   0.000  -0.000  -1.096  -0.000  -0.000
 -0.000  -0.467   0.000   0.000  -0.000  -0.000  -1.106   0.000
 -0.000   0.000  -0.459   0.000   0.000  -0.000   0.000  -1.099
  0.000   0.000   0.000  -0.467  -0.000   0.000   0.000   0.000
 -0.000  -0.000   0.000  -0.000  -0.457  -0.000  -0.000   0.000
 -1.096  -0.000  -0.000   0.000  -0.000  -1.677  -0.000  -0.000
 -0.000  -1.106   0.000   0.000  -0.000  -0.000  -1.686   0.000
 -0.000   0.000  -1.099   0.000   0.000  -0.000   0.000  -1.679
  0.000   0.000   0.000  -1.106  -0.000   0.000   0.000   0.000
 -0.000  -0.000   0.000  -0.000  -1.096  -0.000  -0.000   0.000
 -0.000  -0.000   0.001   0.000   0.000  -0.000  -0.000   0.001
 -0.000  -0.000   0.002   0.000   0.000  -0.000  -0.000   0.002
 -0.000   0.000   0.000  -0.000   0.001  -0.000   0.000   0.000
 -0.000   0.000   0.000  -0.000   0.000  -0.000   0.000   0.000
  0.001  -0.000   0.000   0.000  -0.000   0.001  -0.000   0.000
 -0.000   0.000   0.000  -0.000   0.001  -0.000   0.000   0.000
 -0.000   0.000   0.000  -0.000   0.000  -0.000   0.000   0.000
  0.001  -0.000   0.000   0.000  -0.000   0.001  -0.000   0.000
 pseudopotential strength for first ion, spin component:           2
  0.911  -0.000  -0.000   0.000  -0.000   0.214  -0.000  -0.000
 -0.000   0.919   0.000   0.000  -0.000  -0.000   0.222   0.000
 -0.000   0.000   0.897   0.000   0.000  -0.000   0.000   0.200
  0.000   0.000   0.000   0.919  -0.000   0.000   0.000   0.000
 -0.000  -0.000   0.000  -0.000   0.911  -0.000  -0.000   0.000
  0.214  -0.000  -0.000   0.000  -0.000  -0.422  -0.000  -0.000
 -0.000   0.222   0.000   0.000  -0.000  -0.000  -0.414   0.000
 -0.000   0.000   0.200   0.000   0.000  -0.000   0.000  -0.435
  0.000   0.000   0.000   0.222  -0.000   0.000   0.000   0.000
 -0.000  -0.000   0.000  -0.000   0.214  -0.000  -0.000   0.000
 -0.000  -0.000   0.000   0.000   0.000  -0.000  -0.000   0.000
 -0.000  -0.000   0.000   0.000   0.000  -0.000  -0.000   0.000
 -0.000   0.000  -0.000  -0.000   0.000  -0.000   0.000  -0.000
 -0.000   0.000   0.000  -0.000   0.000  -0.000   0.000   0.000
  0.000  -0.000   0.000   0.000  -0.000   0.000  -0.000   0.000
 -0.000   0.000  -0.000  -0.000   0.000  -0.000   0.000  -0.000
 -0.000   0.000   0.000  -0.000   0.000  -0.000   0.000   0.000
  0.000  -0.000   0.000   0.000  -0.000   0.000  -0.000   0.000
 total augmentation occupancy for first ion, spin component:           1
  3.021   0.000   0.000   0.000   0.000  -1.679   0.000   0.000  -0.000   0.000   0.000  -0.000   0.000  -0.000  -0.043  -0.000
  0.000   3.137   0.000   0.000  -0.000  -0.000  -1.729   0.000   0.000   0.000  -0.000   0.000   0.000  -0.000   0.000  -0.000
  0.000  -0.000   2.874   0.000   0.000  -0.000   0.000  -1.616   0.000  -0.000  -0.020   0.000   0.000  -0.000  -0.000  -0.000
  0.000   0.000  -0.000   3.137  -0.000  -0.000   0.000   0.000  -1.729  -0.000   0.000   0.000  -0.000   0.000   0.000  -0.000
  0.000  -0.000   0.000  -0.000   3.021   0.000   0.000  -0.000  -0.000  -1.679   0.000   0.000  -0.043   0.000  -0.000   0.003
 -1.679  -0.000   0.000  -0.000   0.000   1.889   0.000   0.000   0.000   0.000   0.000   0.000   0.000  -0.000   0.059   0.000
 -0.000  -1.729   0.000   0.000   0.000  -0.000   1.868   0.000  -0.000  -0.000   0.000   0.000   0.000   0.000   0.000   0.000
 -0.000   0.000  -1.616   0.000  -0.000   0.000   0.000   1.911   0.000   0.000   0.015  -0.000  -0.000  -0.000   0.000  -0.000
  0.000   0.000   0.000  -1.729   0.000   0.000   0.000  -0.000   1.868   0.000   0.000   0.000   0.000   0.000   0.000   0.000
 -0.000   0.000  -0.000   0.000  -1.679   0.000   0.000   0.000  -0.000   1.889  -0.000   0.000   0.059   0.000   0.000  -0.004
  0.000  -0.000  -0.020   0.000   0.000   0.000   0.000   0.015   0.000  -0.000   2.359  -0.280  -0.000  -0.000   0.000  -0.000
  0.000   0.000   0.000  -0.000   0.000   0.000  -0.000  -0.000   0.000   0.000  -0.280   0.042   0.000  -0.000  -0.000   0.000
  0.000   0.000   0.000   0.000  -0.043  -0.000  -0.000   0.000   0.000   0.059   0.000   0.000   0.323   0.000   0.000  -0.030
 -0.000  -0.000  -0.000   0.000  -0.000   0.000  -0.000   0.000  -0.000   0.000  -0.000  -0.000  -0.000   0.327   0.000   0.000
 -0.043  -0.000   0.000  -0.000  -0.000   0.059   0.000   0.000  -0.000   0.000   0.000   0.000  -0.000  -0.000   0.323  -0.000
  0.000   0.000   0.000  -0.000   0.003   0.000   0.000   0.000  -0.000  -0.004  -0.000  -0.000  -0.030   0.000   0.000   0.003
 -0.000  -0.000   0.000   0.000   0.000  -0.000  -0.000   0.000  -0.000   0.000  -0.000  -0.000   0.000  -0.031   0.000   0.000
  0.003  -0.000   0.000   0.000   0.000  -0.004   0.000   0.000   0.000   0.000   0.000   0.000   0.000   0.000  -0.030   0.000
 total augmentation occupancy for first ion, spin component:           2
  2.178  -0.000  -0.000  -0.000   0.000  -1.060   0.000  -0.000   0.000  -0.000   0.000  -0.000   0.000  -0.000   0.004  -0.000
  0.000   2.213  -0.000   0.000   0.000  -0.000  -1.078   0.000  -0.000   0.000   0.000   0.000  -0.000   0.000   0.000  -0.000
 -0.000   0.000   2.180   0.000   0.000   0.000   0.000  -1.061   0.000  -0.000  -0.001  -0.000  -0.000   0.000  -0.000  -0.000
 -0.000   0.000   0.000   2.213   0.000   0.000  -0.000  -0.000  -1.078  -0.000   0.000   0.000   0.000  -0.000   0.000  -0.000
 -0.000   0.000   0.000  -0.000   2.178   0.000  -0.000  -0.000   0.000  -1.060  -0.000   0.000   0.004   0.000   0.000  -0.000
 -1.060   0.000   0.000   0.000  -0.000   0.323  -0.000   0.000   0.000  -0.000  -0.000   0.000   0.000   0.000  -0.008   0.000
  0.000  -1.078  -0.000   0.000  -0.000   0.000   0.340   0.000   0.000  -0.000  -0.000   0.000  -0.000   0.000   0.000  -0.000
 -0.000   0.000  -1.061   0.000  -0.000   0.000  -0.000   0.310   0.000   0.000  -0.000   0.000  -0.000  -0.000   0.000   0.000
  0.000  -0.000   0.000  -1.078   0.000   0.000  -0.000   0.000   0.340   0.000  -0.000  -0.000   0.000   0.000  -0.000  -0.000
  0.000   0.000  -0.000  -0.000  -1.060  -0.000   0.000   0.000  -0.000   0.323   0.000  -0.000  -0.008   0.000   0.000   0.000
 -0.000  -0.000  -0.001  -0.000  -0.000  -0.000  -0.000  -0.000   0.000   0.000  -0.306   0.095   0.000  -0.000   0.000  -0.000
 -0.000  -0.000  -0.000   0.000   0.000   0.000   0.000   0.000   0.000  -0.000   0.095  -0.016   0.000   0.000   0.000   0.000
  0.000   0.000  -0.000   0.000   0.004   0.000  -0.000   0.000   0.000  -0.008  -0.000   0.000  -0.033  -0.000   0.000   0.005
  0.000  -0.000   0.000   0.000  -0.000   0.000   0.000   0.000   0.000  -0.000  -0.000   0.000  -0.000  -0.038   0.000   0.000
  0.004  -0.000   0.000   0.000   0.000  -0.008   0.000  -0.000   0.000  -0.000   0.000   0.000   0.000  -0.000  -0.033   0.000
  0.000   0.000   0.000   0.000  -0.000  -0.000  -0.000   0.000  -0.000   0.000   0.000   0.000   0.005  -0.000   0.000  -0.001
  0.000   0.000   0.000   0.000   0.000  -0.000  -0.000   0.000  -0.000  -0.000   0.000  -0.000   0.000   0.005  -0.000   0.000
 -0.000   0.000   0.000   0.000   0.000   0.000   0.000   0.000   0.000  -0.000   0.000   0.000  -0.000  -0.000   0.005   0.000


------------------------ aborting loop because EDIFF is reached ----------------------------------------


    CHARGE:  cpu time      0.0207: real time      0.0207
    FORLOC:  cpu time      0.0001: real time      0.0001
    FORNL :  cpu time      0.0157: real time      0.0157
    STRESS:  cpu time      0.0468: real time      0.0469
    FORCOR:  cpu time      0.0039: real time      0.0039
    FORHAR:  cpu time      0.0004: real time      0.0004
    MIXING:  cpu time      0.0002: real time      0.0002
    OFIELD:  cpu time      0.0000: real time      0.0000

  FORCE on cell =-STRESS in cart. coord.  units (eV):
  Direction    XX          YY          ZZ          XY          YZ          ZX
  --------------------------------------------------------------------------------------
  Alpha Z    79.61870    79.61870    79.61870
  Ewald    -511.71047  -511.71047  -508.18277     0.00000     0.00000    -0.00000
  Hartree    86.24661    86.24661    87.84396     0.00000     0.00000    -0.00000
  E(xc)     -92.69460   -92.69460   -92.68703     0.00000     0.00000    -0.00000
  Local     -15.36528   -15.36504   -20.00819     0.00000     0.00000    -0.00000
  n-local   -14.16231    -3.11392    -8.81308     3.32638    -0.63535     2.37786
  augment   310.89554   310.89530   310.63367    -0.00000    -0.00000    -0.00000
  Kinetic   155.42572   149.20190   152.01102    -3.43255    -0.61947     0.58928
  Fock        0.00000     0.00000     0.00000     0.00000     0.00000     0.00000
  -------------------------------------------------------------------------------------
  Total       0.66619     0.66619     0.41628     0.00000    -0.00000    -0.00000
  in kB      50.15729    50.15729    31.34155     0.00000    -0.00000    -0.00000
  external pressure =       43.89 kB  Pullay stress =        0.00 kB


 VOLUME and BASIS-vectors are now :
 -----------------------------------------------------------------------------
  energy-cutoff  :      350.00
  volume of cell :       21.28
      direct lattice vectors                 reciprocal lattice vectors
     1.235999952 -2.140814714  0.000000000     0.404530760 -0.233555943  0.000000000
     1.235999952  2.140814714  0.000000000     0.404530760  0.233555943  0.000000000
     0.000000000  0.000000000  4.021144080     0.000000000  0.000000000  0.248685444

  length of vectors
     2.471999903  2.471999903  4.021144080     0.467111887  0.467111887  0.248685444


 FORCES acting on ions
    electron-ion (+dipol)            ewald-force                    non-local-force                 convergence-correction
 -----------------------------------------------------------------------------------------------
   0.416E-12 -.136E-05 -.212E-11   -.138E-13 0.239E-11 -.240E-13   -.347E-17 0.347E-16 -.217E-17   0.253E-13 -.318E-08 -.108E-12
   -.786E-12 0.136E-05 -.597E-11   0.114E-13 -.239E-11 0.240E-13   0.520E-17 -.520E-16 -.434E-18   -.335E-13 0.318E-08 0.107E-12
 -----------------------------------------------------------------------------------------------
   -.370E-12 0.321E-10 -.809E-11   -.234E-14 0.772E-15 0.000E+00   0.173E-17 -.173E-16 -.260E-17   -.825E-14 -.330E-13 -.753E-15
 
 
 POSITION                                       TOTAL-FORCE (eV/Angst)
 -----------------------------------------------------------------------------------
      1.23600      0.71360      1.00529        -0.000000     -0.000000      0.000000
      1.23600     -0.71360      3.01586         0.000000      0.000000      0.000000
 -----------------------------------------------------------------------------------
    total drift:                               -0.000000      0.000000     -0.000000


--------------------------------------------------------------------------------------------------------



  FREE ENERGIE OF THE ION-ELECTRON SYSTEM (eV)
  ---------------------------------------------------
  free  energy   TOTEN  =       -14.07568590 eV

  energy  without entropy=      -14.07599764  energy(sigma->0) =      -14.07578981
 


--------------------------------------------------------------------------------------------------------


    POTLOK:  cpu time      0.0092: real time      0.0093


--------------------------------------------------------------------------------------------------------


     LOOP+:  cpu time      6.3346: real time      6.3762
    4ORBIT:  cpu time      0.0000: real time      0.0000

 total amount of memory used by VASP MPI-rank0    31956. kBytes
=======================================================================

   base      :      30000. kBytes
   nonl-proj :        647. kBytes
   fftplans  :        152. kBytes
   grid      :        374. kBytes
   one-center:         31. kBytes
   wavefun   :        752. kBytes
 
  
  
 General timing and accounting informations for this job:
 ========================================================
  
                  Total CPU time used (sec):        7.169
                            User time (sec):        6.598
                          System time (sec):        0.571
                         Elapsed time (sec):        9.203
  
                   Maximum memory used (kb):      219464.
                   Average memory used (kb):          N/A
  
                          Minor page faults:        21374
                          Major page faults:           76
                 Voluntary context switches:         2706
