<?xml version="1.0" encoding="ISO-8859-1"?>
<modeling>
 <generator>
  <i name="program" type="string">vasp </i>
  <i name="version" type="string">6.3.2  </i>
  <i name="subversion" type="string">27Jun22 (build Aug 12 2022 00:53:59) complex                          parallel </i>
  <i name="platform" type="string">tv2STD </i>
  <i name="date" type="string">2024 11 30 </i>
  <i name="time" type="string">15:14:01 </i>
 </generator>
 <incar>
  <i type="string" name="SYSTEM">Co fcc</i>
  <i type="int" name="ISTART">     0</i>
  <i type="string" name="PREC">Accurate      normal | accurate</i>
  <i type="string" name="ALGO">Normal     Normal, Fast, Very_Fast</i>
  <i type="logical" name="ADDGRID"> F  </i>
  <i type="int" name="ISPIN">     2</i>
  <i type="int" name="ICHARG">     2</i>
  <i type="int" name="INIWAV">     1</i>
  <i type="int" name="NELM">   100</i>
  <i type="int" name="IBRION">    -1</i>
  <i name="EDIFF">      0.00000100</i>
  <i name="EDIFFG">     -0.02000000</i>
  <i type="int" name="NSW">     0</i>
  <i type="int" name="ISIF">     2</i>
  <i type="int" name="ISYM">     1</i>
  <i name="ENCUT">    350.00000000</i>
  <v name="MAGMOM">      3.00000000      3.00000000</v>
  <i type="logical" name="LREAL"> F  </i>
  <i type="int" name="ISMEAR">     1</i>
  <i name="SIGMA">      0.20000000</i>
  <i type="int" name="NWRITE">     2</i>
  <i type="logical" name="LWAVE"> F  </i>
  <i type="logical" name="LCHARG"> F  </i>
 </incar>
 <primitive_cell>
  <structure name="primitive_cell" >
   <crystal>
    <varray name="basis" >
     <v>       2.47000000       0.00000000       0.00000000 </v>
     <v>      -1.23500000       2.13908275       0.00000000 </v>
     <v>       0.00000000       0.00000000       8.09000000 </v>
    </varray>
    <i name="volume">     42.74379318 </i>
    <varray name="rec_basis" >
     <v>       0.40485830       0.23374505       0.00000000 </v>
     <v>       0.00000000       0.46749010       0.00000000 </v>
     <v>       0.00000000       0.00000000       0.12360939 </v>
    </varray>
   </crystal>
   <varray name="positions" >
    <v>       0.00000000       0.00000000       0.00000000 </v>
    <v>       0.33333333       0.66666667       0.50000000 </v>
   </varray>
  </structure>
  <varray name="primitive_index" >
   <v type="int" >        1 </v>
   <v type="int" >        2 </v>
  </varray>
 </primitive_cell>
 <kpoints>
  <generation param="Gamma">
   <v type="int" name="divisions">       6        6        4 </v>
   <v name="usershift">      0.00000000       0.00000000       0.00000000 </v>
   <v name="genvec1">      0.16666667       0.00000000       0.00000000 </v>
   <v name="genvec2">      0.00000000       0.16666667       0.00000000 </v>
   <v name="genvec3">      0.00000000       0.00000000       0.25000000 </v>
   <v name="shift">      0.00000000       0.00000000       0.00000000 </v>
  </generation>
  <varray name="kpointlist" >
   <v>       0.00000000       0.00000000       0.00000000 </v>
   <v>       0.16666667      -0.00000000       0.00000000 </v>
   <v>       0.33333333      -0.00000000       0.00000000 </v>
   <v>       0.50000000      -0.00000000       0.00000000 </v>
   <v>       0.16666667       0.16666667       0.00000000 </v>
   <v>       0.33333333       0.16666667       0.00000000 </v>
   <v>       0.33333333       0.33333333       0.00000000 </v>
   <v>       0.00000000       0.00000000       0.25000000 </v>
   <v>       0.16666667      -0.00000000       0.25000000 </v>
   <v>       0.33333333      -0.00000000       0.25000000 </v>
   <v>       0.50000000      -0.00000000       0.25000000 </v>
   <v>       0.16666667       0.16666667       0.25000000 </v>
   <v>       0.33333333       0.16666667       0.25000000 </v>
   <v>       0.33333333       0.33333333       0.25000000 </v>
   <v>       0.00000000       0.00000000       0.50000000 </v>
   <v>       0.16666667      -0.00000000       0.50000000 </v>
   <v>       0.33333333      -0.00000000       0.50000000 </v>
   <v>       0.50000000      -0.00000000       0.50000000 </v>
   <v>       0.16666667       0.16666667       0.50000000 </v>
   <v>       0.33333333       0.16666667       0.50000000 </v>
   <v>       0.33333333       0.33333333       0.50000000 </v>
  </varray>
  <varray name="weights" >
   <v>       0.00694444 </v>
   <v>       0.04166667 </v>
   <v>       0.04166667 </v>
   <v>       0.02083333 </v>
   <v>       0.04166667 </v>
   <v>       0.08333333 </v>
   <v>       0.01388889 </v>
   <v>       0.01388889 </v>
   <v>       0.08333333 </v>
   <v>       0.08333333 </v>
   <v>       0.04166667 </v>
   <v>       0.08333333 </v>
   <v>       0.16666667 </v>
   <v>       0.02777778 </v>
   <v>       0.00694444 </v>
   <v>       0.04166667 </v>
   <v>       0.04166667 </v>
   <v>       0.02083333 </v>
   <v>       0.04166667 </v>
   <v>       0.08333333 </v>
   <v>       0.01388889 </v>
  </varray>
 </kpoints>
 <parameters>
  <separator name="general" >
   <i type="string" name="SYSTEM">Co fcc</i>
   <i type="logical" name="LCOMPAT"> F  </i>
  </separator>
  <separator name="electronic" >
   <i type="string" name="PREC">accura</i>
   <i name="ENMAX">    350.00000000</i>
   <i name="ENAUG">    477.81800000</i>
   <i name="EDIFF">      0.00000100</i>
   <i type="int" name="IALGO">    38</i>
   <i type="int" name="IWAVPR">    10</i>
   <i type="int" name="NBANDS">    16</i>
   <i type="int" name="NBANDSLOW">    -1</i>
   <i type="int" name="NBANDSHIGH">    -1</i>
   <i name="NELECT">     18.00000000</i>
   <i type="int" name="TURBO">     0</i>
   <i type="int" name="IRESTART">     0</i>
   <i type="int" name="NREBOOT">     0</i>
   <i type="int" name="NMIN">     0</i>
   <i name="EREF">      0.00000000</i>
   <separator name="electronic smearing" >
    <i type="int" name="ISMEAR">     1</i>
    <i name="SIGMA">      0.20000000</i>
    <i name="KSPACING">      0.50000000</i>
    <i type="logical" name="KGAMMA"> T  </i>
    <i type="logical" name="KBLOWUP"> T  </i>
   </separator>
   <separator name="electronic projectors" >
    <i type="logical" name="LREAL"> F  </i>
    <v name="ROPT">      0.00000000</v>
    <i type="int" name="LMAXPAW">  -100</i>
    <i type="int" name="LMAXMIX">     2</i>
    <i type="logical" name="NLSPLINE"> F  </i>
   </separator>
   <separator name="electronic startup" >
    <i type="int" name="ISTART">     0</i>
    <i type="int" name="ICHARG">     2</i>
    <i type="int" name="INIWAV">     1</i>
   </separator>
   <separator name="electronic spin" >
    <i type="int" name="ISPIN">     2</i>
    <i type="logical" name="LNONCOLLINEAR"> F  </i>
    <v name="MAGMOM">      3.00000000      3.00000000</v>
    <i name="NUPDOWN">     -1.00000000</i>
    <i type="logical" name="LSORBIT"> F  </i>
    <v name="SAXIS">      0.00000000      0.00000000      1.00000000</v>
    <i type="logical" name="LSPIRAL"> F  </i>
    <v name="QSPIRAL">      0.00000000      0.00000000      0.00000000</v>
    <i type="logical" name="LZEROZ"> F  </i>
   </separator>
   <separator name="electronic exchange-correlation" >
    <i type="logical" name="LASPH"> F  </i>
    <i type="logical" name="LMETAGGA"> F  </i>
   </separator>
   <separator name="electronic convergence" >
    <i type="int" name="NELM">   100</i>
    <i type="int" name="NELMDL">    -5</i>
    <i type="int" name="NELMIN">     2</i>
    <i name="ENINI">    350.00000000</i>
    <separator name="electronic convergence detail" >
     <i type="logical" name="LDIAG"> T  </i>
     <i type="logical" name="LSUBROT"> F  </i>
     <i name="WEIMIN">      0.00000000</i>
     <i name="EBREAK">      0.00000002</i>
     <i name="DEPER">      0.30000000</i>
     <i type="int" name="NRMM">     4</i>
     <i name="TIME">      0.40000000</i>
    </separator>
   </separator>
   <separator name="electronic mixer" >
    <i name="AMIX">      0.40000000</i>
    <i name="BMIX">      1.00000000</i>
    <i name="AMIN">      0.10000000</i>
    <i name="AMIX_MAG">      1.60000000</i>
    <i name="BMIX_MAG">      1.00000000</i>
    <separator name="electronic mixer details" >
     <i type="int" name="IMIX">     4</i>
     <i type="logical" name="MIXFIRST"> F  </i>
     <i type="int" name="MAXMIX">   -45</i>
     <i name="WC">    100.00000000</i>
     <i type="int" name="INIMIX">     1</i>
     <i type="int" name="MIXPRE">     1</i>
     <i type="int" name="MREMOVE">     5</i>
    </separator>
   </separator>
   <separator name="electronic dipolcorrection" >
    <i type="logical" name="LDIPOL"> F  </i>
    <i type="logical" name="LMONO"> F  </i>
    <i type="int" name="IDIPOL">     0</i>
    <i name="EPSILON">      1.00000000</i>
    <v name="DIPOL">   -100.00000000   -100.00000000   -100.00000000</v>
    <i name="EFIELD">      0.00000000</i>
   </separator>
  </separator>
  <separator name="grids" >
   <i type="int" name="NGX">    16</i>
   <i type="int" name="NGY">    16</i>
   <i type="int" name="NGZ">    50</i>
   <i type="int" name="NGXF">    32</i>
   <i type="int" name="NGYF">    32</i>
   <i type="int" name="NGZF">   100</i>
   <i type="logical" name="ADDGRID"> F  </i>
  </separator>
  <separator name="ionic" >
   <i type="int" name="NSW">     0</i>
   <i type="int" name="IBRION">    -1</i>
   <i type="int" name="MDALGO">     0</i>
   <i type="int" name="ISIF">     2</i>
   <i name="PSTRESS">      0.00000000</i>
   <i name="EDIFFG">     -0.02000000</i>
   <i type="int" name="NFREE">     0</i>
   <i name="POTIM">      0.50000000</i>
   <i name="SMASS">     -3.00000000</i>
   <i name="SCALEE">      1.00000000</i>
  </separator>
  <separator name="ionic md" >
   <i name="TEBEG">      0.00010000</i>
   <i name="TEEND">      0.00010000</i>
   <i type="int" name="NBLOCK">     1</i>
   <i type="int" name="KBLOCK">     1</i>
   <i type="int" name="NPACO">   256</i>
   <i name="APACO">     10.00000000</i>
  </separator>
  <separator name="symmetry" >
   <i type="int" name="ISYM">     1</i>
   <i name="SYMPREC">      0.00001000</i>
  </separator>
  <separator name="dos" >
   <i type="int" name="LORBIT">     0</i>
   <v name="RWIGS">     -1.00000000</v>
   <i type="int" name="NEDOS">   301</i>
   <i name="EMIN">     10.00000000</i>
   <i name="EMAX">    -10.00000000</i>
   <i name="EFERMI">      0.00000000</i>
  </separator>
  <separator name="writing" >
   <i type="int" name="NWRITE">     2</i>
   <i type="logical" name="LWAVE"> F  </i>
   <i type="logical" name="LDOWNSAMPLE"> F  </i>
   <i type="logical" name="LCHARG"> F  </i>
   <i type="logical" name="LPARD"> F  </i>
   <i type="logical" name="LVTOT"> F  </i>
   <i type="logical" name="LVHAR"> F  </i>
   <i type="logical" name="LELF"> F  </i>
   <i type="logical" name="LOPTICS"> F  </i>
   <v name="STM">      0.00000000      0.00000000      0.00000000      0.00000000      0.00000000      0.00000000      0.00000000</v>
  </separator>
  <separator name="performance" >
   <i type="int" name="NPAR">     4</i>
   <i type="int" name="NSIM">     4</i>
   <i type="int" name="NBLK">    -1</i>
   <i type="logical" name="LPLANE"> T  </i>
   <i type="logical" name="LSCALAPACK"> T  </i>
   <i type="logical" name="LSCAAWARE"> F  </i>
   <i type="logical" name="LSCALU"> F  </i>
   <i type="logical" name="LASYNC"> F  </i>
   <i type="logical" name="LORBITALREAL"> F  </i>
  </separator>
  <separator name="miscellaneous" >
   <i type="int" name="IDIOT">     3</i>
   <i type="int" name="PHON_NSTRUCT">    -1</i>
   <i type="logical" name="LMUSIC"> F  </i>
   <v name="POMASS">     58.93300000</v>
   <v name="DARWINR">      0.00000000</v>
   <v name="DARWINV">      1.00000000</v>
   <i type="logical" name="LCORR"> T  </i>
  </separator>
  <i type="logical" name="GGA_COMPAT"> T  </i>
  <i type="logical" name="LBERRY"> F  </i>
  <i type="int" name="ICORELEVEL">     0</i>
  <i type="logical" name="LDAU"> F  </i>
  <i type="int" name="I_CONSTRAINED_M">     0</i>
  <separator name="electronic exchange-correlation" >
   <i type="string" name="GGA">--</i>
   <i type="int" name="VOSKOWN">     0</i>
   <i type="logical" name="LHFCALC"> F  </i>
   <i type="string" name="PRECFOCK"></i>
   <i type="logical" name="LSYMGRAD"> F  </i>
   <i type="logical" name="LHFONE"> F  </i>
   <i type="logical" name="LRHFCALC"> F  </i>
   <i type="logical" name="LTHOMAS"> F  </i>
   <i type="logical" name="LMODELHF"> F  </i>
   <i type="logical" name="LFOCKACE"> F  </i>
   <i name="ENCUT4O">     -1.00000000</i>
   <i type="int" name="EXXOEP">     0</i>
   <i type="int" name="FOURORBIT">     0</i>
   <i name="AEXX">      0.00000000</i>
   <i name="HFALPHA">      0.00000000</i>
   <i name="MCALPHA">      0.00000000</i>
   <i name="ALDAX">      1.00000000</i>
   <i name="AGGAX">      1.00000000</i>
   <i name="ALDAC">      1.00000000</i>
   <i name="AGGAC">      1.00000000</i>
   <i type="int" name="NKREDX">     1</i>
   <i type="int" name="NKREDY">     1</i>
   <i type="int" name="NKREDZ">     1</i>
   <i type="logical" name="SHIFTRED"> F  </i>
   <i type="logical" name="ODDONLY"> F  </i>
   <i type="logical" name="EVENONLY"> F  </i>
   <i type="int" name="LMAXFOCK">     0</i>
   <i type="int" name="NMAXFOCKAE">     0</i>
   <i type="logical" name="LFOCKAEDFT"> F  </i>
   <i name="HFSCREEN">      0.00000000</i>
   <i name="HFSCREENC">      0.00000000</i>
   <i type="int" name="NBANDSGWLOW">     0</i>
  </separator>
  <separator name="vdW DFT" >
   <i type="logical" name="LUSE_VDW"> F  </i>
   <i name="Zab_VDW">     -0.84910000</i>
   <i name="PARAM1">      0.12340000</i>
   <i name="PARAM2">      1.00000000</i>
   <i name="PARAM3">      0.00000000</i>
  </separator>
  <separator name="model GW" >
   <i type="int" name="MODEL_GW">     0</i>
   <i name="MODEL_EPS0">     12.82313795</i>
   <i name="MODEL_ALPHA">      1.00000000</i>
  </separator>
  <separator name="linear response parameters" >
   <i type="logical" name="LEPSILON"> F  </i>
   <i type="logical" name="LRPA"> F  </i>
   <i type="logical" name="LNABLA"> F  </i>
   <i type="logical" name="LVEL"> F  </i>
   <i name="CSHIFT">      0.10000000</i>
   <i name="OMEGAMAX">     -1.00000000</i>
   <i name="DEG_THRESHOLD">      0.00200000</i>
   <i name="RTIME">     -0.10000000</i>
   <i name="WPLASMAI">      0.00000000</i>
   <v name="DFIELD">      0.00000000      0.00000000      0.00000000</v>
   <v name="WPLASMA">      0.00000000      0.00000000      0.00000000      0.00000000      0.00000000      0.00000000      0.00000000      0.00000000      0.00000000</v>
  </separator>
  <separator name="orbital magnetization" >
   <i type="logical" name="NUCIND"> F  </i>
   <v name="MAGPOS">      0.00000000      0.00000000      0.00000000</v>
   <i type="logical" name="LNICSALL"> T  </i>
   <i type="logical" name="ORBITALMAG"> F  </i>
   <i type="logical" name="LMAGBLOCH"> F  </i>
   <i type="logical" name="LCHIMAG"> F  </i>
   <i type="logical" name="LGAUGE"> T  </i>
   <i type="int" name="MAGATOM">     0</i>
   <v name="MAGDIPOL">      0.00000000      0.00000000      0.00000000</v>
   <v name="AVECCONST">      0.00000000      0.00000000      0.00000000</v>
  </separator>
  <separator name="response functions" >
   <i type="logical" name="LFINITE_TEMPERATURE"> F  </i>
   <i type="logical" name="LADDER"> F  </i>
   <i type="logical" name="LRPAFORCE"> F  </i>
   <i type="logical" name="LFXC"> F  </i>
   <i type="logical" name="LHARTREE"> T  </i>
   <i type="int" name="IBSE">     0</i>
   <v type="int" name="KPOINT">    -1     0     0     0</v>
   <i type="logical" name="LTCTC"> F  </i>
   <i type="logical" name="LTCTE"> F  </i>
   <i type="logical" name="LTETE"> F  </i>
   <i type="logical" name="LTRIPLET"> F  </i>
   <i type="logical" name="LFXCEPS"> F  </i>
   <i type="logical" name="LFXHEG"> F  </i>
   <i type="int" name="NATURALO">     2</i>
   <i type="logical" name="LHOLEGF"> F  </i>
   <i type="logical" name="L2ORDER"> F  </i>
   <i type="logical" name="LDMP1"> F  </i>
   <i type="logical" name="LMP2LT"> F  </i>
   <i type="logical" name="LSMP2LT"> F  </i>
   <i type="logical" name="LGWLF"> F  </i>
   <i name="ENCUTGW">     -2.00000000</i>
   <i name="ENCUTGWSOFT">     -2.00000000</i>
   <i name="ENCUTLF">     -1.00000000</i>
   <i type="logical" name="LESF_SPLINES"> F  </i>
   <i type="int" name="LMAXMP2">    -1</i>
   <i name="SCISSOR">      0.00000000</i>
   <i type="int" name="NOMEGA">     0</i>
   <i type="int" name="NOMEGAR">     0</i>
   <i type="int" name="NBANDSGW">    -1</i>
   <i type="int" name="NBANDSO">    -1</i>
   <i type="int" name="NBANDSV">    -1</i>
   <i type="int" name="NELMGW">     1</i>
   <i type="int" name="NELMHF">     1</i>
   <i type="int" name="DIM">     3</i>
   <i type="int" name="IESPILON">     4</i>
   <i type="int" name="ANTIRES">     0</i>
   <i name="OMEGAMAX">    -30.00000000</i>
   <i name="OMEGAMIN">    -30.00000000</i>
   <i name="OMEGATL">   -200.00000000</i>
   <i type="int" name="OMEGAGRID">     0</i>
   <i name="CSHIFT">     -0.10000000</i>
   <i type="logical" name="LSELFENERGY"> F  </i>
   <i type="logical" name="LSPECTRAL"> F  </i>
   <i type="logical" name="LSPECTRALGW"> F  </i>
   <i type="logical" name="LSINGLES"> F  </i>
   <i type="logical" name="LFERMIGW"> F  </i>
   <i type="logical" name="ODDONLYGW"> F  </i>
   <i type="logical" name="EVENONLYGW"> F  </i>
   <i type="int" name="NKREDLFX">     1</i>
   <i type="int" name="NKREDLFY">     1</i>
   <i type="int" name="NKREDLFZ">     1</i>
   <i type="int" name="MAXMEM">  2800</i>
   <i type="int" name="TELESCOPE">     0</i>
   <i type="int" name="NTAUPAR">    -1</i>
   <i type="int" name="NOMEGAPAR">    -1</i>
   <i name="DAMP_NEWTON">      0.80000001</i>
   <i name="LAMBDA">      1.00000000</i>
  </separator>
  <separator name="External order field" >
   <i name="OFIELD_KAPPA">      0.00000000</i>
   <v name="OFIELD_K">      0.00000000      0.00000000      0.00000000</v>
   <i name="OFIELD_Q6_NEAR">      0.00000000</i>
   <i name="OFIELD_Q6_FAR">      0.00000000</i>
   <i name="OFIELD_A">      0.00000000</i>
  </separator>
  <separator name="optional k-points parameters" >
   <i type="int" name="KPOINTS_OPT_MODE">     1</i>
   <i type="logical" name="LKPOINTS_OPT"> F  </i>
  </separator>
 </parameters>
 <atominfo>
  <atoms>       2 </atoms>
  <types>       1 </types>
  <array name="atoms" >
   <dimension dim="1">ion</dimension>
   <field type="string">element</field>
   <field type="int">atomtype</field>
   <set>
    <rc><c>Co</c><c>   1</c></rc>
    <rc><c>Co</c><c>   1</c></rc>
   </set>
  </array>
  <array name="atomtypes" >
   <dimension dim="1">type</dimension>
   <field type="int">atomspertype</field>
   <field type="string">element</field>
   <field>mass</field>
   <field>valence</field>
   <field type="string">pseudopotential</field>
   <set>
    <rc><c>   2</c><c>Co</c><c>     58.93300000</c><c>      9.00000000</c><c>  PAW_PBE Co 02Aug2007                  </c></rc>
   </set>
  </array>
 </atominfo>
 <structure name="initialpos" >
  <crystal>
   <varray name="basis" >
    <v>       2.47000000       0.00000000       0.00000000 </v>
    <v>      -1.23500000       2.13908275       0.00000000 </v>
    <v>       0.00000000       0.00000000       8.09000000 </v>
   </varray>
   <i name="volume">     42.74379318 </i>
   <varray name="rec_basis" >
    <v>       0.40485830       0.23374505       0.00000000 </v>
    <v>       0.00000000       0.46749010       0.00000000 </v>
    <v>       0.00000000       0.00000000       0.12360939 </v>
   </varray>
  </crystal>
  <varray name="positions" >
   <v>       0.00000000       0.00000000       0.00000000 </v>
   <v>       0.33333333       0.66666667       0.50000000 </v>
  </varray>
 </structure>
 <calculation>
  <scstep>
   <time name="dav">    0.14    0.14</time>
   <time name="total">    0.16    0.16</time>
   <energy>
    <i name="alphaZ">     39.63868225 </i>
    <i name="ewald">  -1054.56880693 </i>
    <i name="hartreedc">   -595.60964206 </i>
    <i name="XCdc">     33.36921367 </i>
    <i name="pawpsdc">   1439.98163886 </i>
    <i name="pawaedc">  -1545.88690193 </i>
    <i name="eentropy">      0.00046671 </i>
    <i name="bandstr">    128.98904982 </i>
    <i name="atom">   1626.69043168 </i>
    <i name="e_fr_energy">     72.60413208 </i>
    <i name="e_wo_entrp">     72.60366536 </i>
    <i name="e_0_energy">     72.60397650 </i>
   </energy>
  </scstep>
  <scstep>
   <time name="dav">    0.13    0.13</time>
   <time name="total">    0.13    0.13</time>
   <energy>
    <i name="e_fr_energy">    -10.82164923 </i>
    <i name="e_wo_entrp">    -10.82039463 </i>
    <i name="e_0_energy">    -10.82123103 </i>
   </energy>
  </scstep>
  <scstep>
   <time name="dav">    0.16    0.16</time>
   <time name="total">    0.16    0.16</time>
   <energy>
    <i name="e_fr_energy">    -12.72492629 </i>
    <i name="e_wo_entrp">    -12.71721920 </i>
    <i name="e_0_energy">    -12.72235726 </i>
   </energy>
  </scstep>
  <scstep>
   <time name="dav">    0.16    0.16</time>
   <time name="total">    0.16    0.16</time>
   <energy>
    <i name="e_fr_energy">    -12.75999553 </i>
    <i name="e_wo_entrp">    -12.75224723 </i>
    <i name="e_0_energy">    -12.75741276 </i>
   </energy>
  </scstep>
  <scstep>
   <time name="dav">    0.15    0.15</time>
   <time name="total">    0.18    0.18</time>
   <energy>
    <i name="e_fr_energy">    -12.76044126 </i>
    <i name="e_wo_entrp">    -12.75269776 </i>
    <i name="e_0_energy">    -12.75786009 </i>
   </energy>
  </scstep>
  <scstep>
   <time name="dav">    0.14    0.14</time>
   <time name="total">    0.18    0.18</time>
   <energy>
    <i name="e_fr_energy">    -12.67540415 </i>
    <i name="e_wo_entrp">    -12.68308719 </i>
    <i name="e_0_energy">    -12.67796516 </i>
   </energy>
  </scstep>
  <scstep>
   <time name="dav">    0.14    0.15</time>
   <time name="total">    0.18    0.18</time>
   <energy>
    <i name="e_fr_energy">    -11.20216129 </i>
    <i name="e_wo_entrp">    -11.19394329 </i>
    <i name="e_0_energy">    -11.19942196 </i>
   </energy>
  </scstep>
  <scstep>
   <time name="dav">    0.15    0.15</time>
   <time name="total">    0.19    0.19</time>
   <energy>
    <i name="e_fr_energy">    -11.23012906 </i>
    <i name="e_wo_entrp">    -11.21887373 </i>
    <i name="e_0_energy">    -11.22637728 </i>
   </energy>
  </scstep>
  <scstep>
   <time name="dav">    0.17    0.17</time>
   <time name="total">    0.20    0.20</time>
   <energy>
    <i name="e_fr_energy">    -11.25061086 </i>
    <i name="e_wo_entrp">    -11.24410765 </i>
    <i name="e_0_energy">    -11.24844313 </i>
   </energy>
  </scstep>
  <scstep>
   <time name="dav">    0.15    0.15</time>
   <time name="total">    0.18    0.19</time>
   <energy>
    <i name="e_fr_energy">    -11.25266227 </i>
    <i name="e_wo_entrp">    -11.24992563 </i>
    <i name="e_0_energy">    -11.25175006 </i>
   </energy>
  </scstep>
  <scstep>
   <time name="dav">    0.15    0.15</time>
   <time name="total">    0.18    0.19</time>
   <energy>
    <i name="e_fr_energy">    -11.24844403 </i>
    <i name="e_wo_entrp">    -11.24286540 </i>
    <i name="e_0_energy">    -11.24658449 </i>
   </energy>
  </scstep>
  <scstep>
   <time name="dav">    0.14    0.15</time>
   <time name="total">    0.18    0.18</time>
   <energy>
    <i name="e_fr_energy">    -11.24824410 </i>
    <i name="e_wo_entrp">    -11.24286370 </i>
    <i name="e_0_energy">    -11.24645063 </i>
   </energy>
  </scstep>
  <scstep>
   <time name="dav">    0.14    0.14</time>
   <time name="total">    0.18    0.18</time>
   <energy>
    <i name="e_fr_energy">    -11.24855673 </i>
    <i name="e_wo_entrp">    -11.24351669 </i>
    <i name="e_0_energy">    -11.24687672 </i>
   </energy>
  </scstep>
  <scstep>
   <time name="dav">    0.15    0.15</time>
   <time name="total">    0.18    0.18</time>
   <energy>
    <i name="e_fr_energy">    -11.24873778 </i>
    <i name="e_wo_entrp">    -11.24389938 </i>
    <i name="e_0_energy">    -11.24712498 </i>
   </energy>
  </scstep>
  <scstep>
   <time name="dav">    0.14    0.14</time>
   <time name="total">    0.17    0.17</time>
   <energy>
    <i name="e_fr_energy">    -11.24875846 </i>
    <i name="e_wo_entrp">    -11.24398191 </i>
    <i name="e_0_energy">    -11.24716628 </i>
   </energy>
  </scstep>
  <scstep>
   <time name="dav">    0.14    0.14</time>
   <time name="total">    0.17    0.17</time>
   <energy>
    <i name="e_fr_energy">    -11.24877825 </i>
    <i name="e_wo_entrp">    -11.24412655 </i>
    <i name="e_0_energy">    -11.24722768 </i>
   </energy>
  </scstep>
  <scstep>
   <time name="dav">    0.12    0.12</time>
   <time name="total">    0.16    0.16</time>
   <energy>
    <i name="e_fr_energy">    -11.24878155 </i>
    <i name="e_wo_entrp">    -11.24416614 </i>
    <i name="e_0_energy">    -11.24724308 </i>
   </energy>
  </scstep>
  <scstep>
   <time name="dav">    0.10    0.10</time>
   <time name="total">    0.11    0.11</time>
   <energy>
    <i name="alphaZ">     39.63868225 </i>
    <i name="ewald">  -1054.56880693 </i>
    <i name="hartreedc">   -566.42050611 </i>
    <i name="XCdc">     31.45169663 </i>
    <i name="pawpsdc">   1611.96338721 </i>
    <i name="pawaedc">  -1718.01886608 </i>
    <i name="eentropy">     -0.00458884 </i>
    <i name="bandstr">     18.01978835 </i>
    <i name="atom">   1626.69043168 </i>
    <i name="e_fr_energy">    -11.24878183 </i>
    <i name="e_wo_entrp">    -11.24419300 </i>
    <i name="e_0_energy">    -11.24725222 </i>
   </energy>
  </scstep>
  <structure>
   <crystal>
    <varray name="basis" >
     <v>       2.47000000       0.00000000       0.00000000 </v>
     <v>      -1.23500000       2.13908275       0.00000000 </v>
     <v>       0.00000000       0.00000000       8.09000000 </v>
    </varray>
    <i name="volume">     42.74379318 </i>
    <varray name="rec_basis" >
     <v>       0.40485830       0.23374505       0.00000000 </v>
     <v>       0.00000000       0.46749010       0.00000000 </v>
     <v>       0.00000000       0.00000000       0.12360939 </v>
    </varray>
   </crystal>
   <varray name="positions" >
    <v>       0.00000000       0.00000000       0.00000000 </v>
    <v>       0.33333333       0.66666667       0.50000000 </v>
   </varray>
  </structure>
  <varray name="forces" >
   <v>       0.00000000      -0.00000000       0.00000000 </v>
   <v>      -0.00000000       0.00000000       0.00000000 </v>
  </varray>
  <varray name="stress" >
   <v>    -109.60459093       0.00000000       0.00000000 </v>
   <v>       0.00000000    -109.60459093      -0.00000000 </v>
   <v>       0.00000000       0.00000000     -49.90334568 </v>
  </varray>
  <energy>
   <i name="e_fr_energy">    -11.24878183 </i>
   <i name="e_wo_entrp">    -11.24419300 </i>
   <i name="e_0_energy">    -11.24725222 </i>
  </energy>
  <time name="totalsc">    3.14    3.16</time>
  <eigenvalues>
   <array>
    <dimension dim="1">band</dimension>
    <dimension dim="2">kpoint</dimension>
    <dimension dim="3">spin</dimension>
    <field>eigene</field>
    <field>occ</field>
    <set>
     <set comment="spin 1">
      <set comment="kpoint 1">
       <r>   -3.0064    1.0000 </r>
       <r>   -2.5462    1.0000 </r>
       <r>   -0.2915    1.0000 </r>
       <r>    0.7196    1.0000 </r>
       <r>    0.7196    1.0000 </r>
       <r>    0.7202    1.0000 </r>
       <r>    0.7202    1.0000 </r>
       <r>    0.7320    1.0000 </r>
       <r>    1.4260    1.0000 </r>
       <r>    1.4260    1.0000 </r>
       <r>    1.4294    1.0000 </r>
       <r>    1.4294    1.0000 </r>
       <r>    2.1368    1.0000 </r>
       <r>    6.4122   -0.0000 </r>
       <r>   10.8451    0.0000 </r>
       <r>   18.8006    0.0000 </r>
      </set>
      <set comment="kpoint 2">
       <r>   -2.0409    1.0000 </r>
       <r>   -1.6498    1.0000 </r>
       <r>    0.0004    1.0000 </r>
       <r>    0.4811    1.0000 </r>
       <r>    0.4902    1.0000 </r>
       <r>    0.5250    1.0000 </r>
       <r>    0.8049    1.0000 </r>
       <r>    0.9961    1.0000 </r>
       <r>    1.1296    1.0000 </r>
       <r>    1.1304    1.0000 </r>
       <r>    1.3455    1.0000 </r>
       <r>    1.3520    1.0000 </r>
       <r>    3.7289   -0.0000 </r>
       <r>    7.8473   -0.0000 </r>
       <r>   11.4709    0.0000 </r>
       <r>   19.9431    0.0000 </r>
      </set>
      <set comment="kpoint 3">
       <r>   -0.9034    1.0000 </r>
       <r>   -0.8543    1.0000 </r>
       <r>   -0.1978    1.0000 </r>
       <r>   -0.0377    1.0000 </r>
       <r>    0.6222    1.0000 </r>
       <r>    0.7874    1.0000 </r>
       <r>    1.1876    1.0000 </r>
       <r>    1.1984    1.0000 </r>
       <r>    1.7699    1.0000 </r>
       <r>    2.0281    1.0000 </r>
       <r>    2.0286    1.0000 </r>
       <r>    2.7011    1.0225 </r>
       <r>    6.7008   -0.0000 </r>
       <r>   11.0732    0.0000 </r>
       <r>   13.0124    0.0000 </r>
       <r>   14.2167    0.0000 </r>
      </set>
      <set comment="kpoint 4">
       <r>   -1.0426    1.0000 </r>
       <r>   -1.0395    1.0000 </r>
       <r>   -0.4401    1.0000 </r>
       <r>   -0.3733    1.0000 </r>
       <r>    0.9381    1.0000 </r>
       <r>    1.0329    1.0000 </r>
       <r>    1.1098    1.0000 </r>
       <r>    1.1226    1.0000 </r>
       <r>    2.5271    1.0012 </r>
       <r>    2.5272    1.0012 </r>
       <r>    5.2363   -0.0000 </r>
       <r>    5.5897   -0.0000 </r>
       <r>    9.2190    0.0000 </r>
       <r>   10.0374    0.0000 </r>
       <r>   10.4419    0.0000 </r>
       <r>   11.5784    0.0000 </r>
      </set>
      <set comment="kpoint 5">
       <r>   -0.5301    1.0000 </r>
       <r>   -0.3929    1.0000 </r>
       <r>    0.0172    1.0000 </r>
       <r>    0.1081    1.0000 </r>
       <r>    0.1121    1.0000 </r>
       <r>    0.2261    1.0000 </r>
       <r>    0.5170    1.0000 </r>
       <r>    1.1313    1.0000 </r>
       <r>    1.1393    1.0000 </r>
       <r>    1.2226    1.0000 </r>
       <r>    2.1893    1.0000 </r>
       <r>    2.5777    1.0035 </r>
       <r>    5.8038   -0.0000 </r>
       <r>   10.1500    0.0000 </r>
       <r>   12.7773    0.0000 </r>
       <r>   18.2705    0.0000 </r>
      </set>
      <set comment="kpoint 6">
       <r>   -0.4724    1.0000 </r>
       <r>   -0.4659    1.0000 </r>
       <r>   -0.2388    1.0000 </r>
       <r>   -0.1502    1.0000 </r>
       <r>    0.8295    1.0000 </r>
       <r>    0.8422    1.0000 </r>
       <r>    0.8557    1.0000 </r>
       <r>    0.8791    1.0000 </r>
       <r>    1.3621    1.0000 </r>
       <r>    1.5246    1.0000 </r>
       <r>    5.1587   -0.0000 </r>
       <r>    5.9776   -0.0000 </r>
       <r>    9.4020    0.0000 </r>
       <r>   11.3247    0.0000 </r>
       <r>   12.3487    0.0000 </r>
       <r>   13.4048    0.0000 </r>
      </set>
      <set comment="kpoint 7">
       <r>    0.1772    1.0000 </r>
       <r>    0.2140    1.0000 </r>
       <r>    0.2140    1.0000 </r>
       <r>    0.2530    1.0000 </r>
       <r>    0.4459    1.0000 </r>
       <r>    0.4613    1.0000 </r>
       <r>    0.4613    1.0000 </r>
       <r>    0.4825    1.0000 </r>
       <r>    0.9672    1.0000 </r>
       <r>    0.9672    1.0000 </r>
       <r>    9.6833    0.0000 </r>
       <r>    9.9382    0.0000 </r>
       <r>    9.9382    0.0000 </r>
       <r>   10.5891    0.0000 </r>
       <r>   12.0402    0.0000 </r>
       <r>   12.0402    0.0000 </r>
      </set>
      <set comment="kpoint 8">
       <r>   -2.9417    1.0000 </r>
       <r>   -2.6156    1.0000 </r>
       <r>   -0.2261    1.0000 </r>
       <r>    0.3902    1.0000 </r>
       <r>    0.7196    1.0000 </r>
       <r>    0.7196    1.0000 </r>
       <r>    0.7202    1.0000 </r>
       <r>    0.7202    1.0000 </r>
       <r>    1.4265    1.0000 </r>
       <r>    1.4265    1.0000 </r>
       <r>    1.4288    1.0000 </r>
       <r>    1.4288    1.0000 </r>
       <r>    2.8072    1.0317 </r>
       <r>    5.5800   -0.0000 </r>
       <r>   11.9460    0.0000 </r>
       <r>   16.8527    0.0000 </r>
      </set>
      <set comment="kpoint 9">
       <r>   -1.9830    1.0000 </r>
       <r>   -1.7053    1.0000 </r>
       <r>    0.0512    1.0000 </r>
       <r>    0.4173    1.0000 </r>
       <r>    0.4899    1.0000 </r>
       <r>    0.4919    1.0000 </r>
       <r>    0.8117    1.0000 </r>
       <r>    0.9132    1.0000 </r>
       <r>    1.1297    1.0000 </r>
       <r>    1.1303    1.0000 </r>
       <r>    1.3465    1.0000 </r>
       <r>    1.3510    1.0000 </r>
       <r>    4.2303   -0.0000 </r>
       <r>    6.9138   -0.0000 </r>
       <r>   12.6910    0.0000 </r>
       <r>   17.7632    0.0000 </r>
      </set>
      <set comment="kpoint 10">
       <r>   -0.8963    1.0000 </r>
       <r>   -0.8615    1.0000 </r>
       <r>   -0.1804    1.0000 </r>
       <r>   -0.0701    1.0000 </r>
       <r>    0.6625    1.0000 </r>
       <r>    0.7749    1.0000 </r>
       <r>    1.1892    1.0000 </r>
       <r>    1.1968    1.0000 </r>
       <r>    1.8633    1.0000 </r>
       <r>    2.0282    1.0000 </r>
       <r>    2.0286    1.0000 </r>
       <r>    2.5059    1.0008 </r>
       <r>    7.1694   -0.0000 </r>
       <r>    9.9012    0.0000 </r>
       <r>   13.9204    0.0000 </r>
       <r>   14.3968    0.0000 </r>
      </set>
      <set comment="kpoint 11">
       <r>   -1.0424    1.0000 </r>
       <r>   -1.0401    1.0000 </r>
       <r>   -0.4315    1.0000 </r>
       <r>   -0.3845    1.0000 </r>
       <r>    0.9549    1.0000 </r>
       <r>    1.0222    1.0000 </r>
       <r>    1.1116    1.0000 </r>
       <r>    1.1207    1.0000 </r>
       <r>    2.5271    1.0012 </r>
       <r>    2.5272    1.0012 </r>
       <r>    5.2787   -0.0000 </r>
       <r>    5.5283   -0.0000 </r>
       <r>    9.2215    0.0000 </r>
       <r>    9.6288    0.0000 </r>
       <r>   11.0731    0.0000 </r>
       <r>   11.7733    0.0000 </r>
      </set>
      <set comment="kpoint 12">
       <r>   -0.5083    1.0000 </r>
       <r>   -0.4115    1.0000 </r>
       <r>    0.0352    1.0000 </r>
       <r>    0.1087    1.0000 </r>
       <r>    0.1117    1.0000 </r>
       <r>    0.1671    1.0000 </r>
       <r>    0.6410    1.0000 </r>
       <r>    1.1251    1.0000 </r>
       <r>    1.1355    1.0000 </r>
       <r>    1.1382    1.0000 </r>
       <r>    2.2134    1.0000 </r>
       <r>    2.4627    1.0003 </r>
       <r>    6.2859   -0.0000 </r>
       <r>    9.0379    0.0000 </r>
       <r>   14.1649    0.0000 </r>
       <r>   18.3444    0.0000 </r>
      </set>
      <set comment="kpoint 13">
       <r>   -0.4717    1.0000 </r>
       <r>   -0.4673    1.0000 </r>
       <r>   -0.2273    1.0000 </r>
       <r>   -0.1651    1.0000 </r>
       <r>    0.8310    1.0000 </r>
       <r>    0.8478    1.0000 </r>
       <r>    0.8557    1.0000 </r>
       <r>    0.8788    1.0000 </r>
       <r>    1.3854    1.0000 </r>
       <r>    1.5008    1.0000 </r>
       <r>    5.2420   -0.0000 </r>
       <r>    5.8021   -0.0000 </r>
       <r>    9.8344    0.0000 </r>
       <r>   11.3648    0.0000 </r>
       <r>   12.1047    0.0000 </r>
       <r>   12.6663    0.0000 </r>
      </set>
      <set comment="kpoint 14">
       <r>    0.1870    1.0000 </r>
       <r>    0.2124    1.0000 </r>
       <r>    0.2124    1.0000 </r>
       <r>    0.2400    1.0000 </r>
       <r>    0.4530    1.0000 </r>
       <r>    0.4625    1.0000 </r>
       <r>    0.4625    1.0000 </r>
       <r>    0.4784    1.0000 </r>
       <r>    0.9680    1.0000 </r>
       <r>    0.9680    1.0000 </r>
       <r>    9.7877    0.0000 </r>
       <r>    9.9635    0.0000 </r>
       <r>    9.9635    0.0000 </r>
       <r>   10.4160    0.0000 </r>
       <r>   11.7916    0.0000 </r>
       <r>   11.7916    0.0000 </r>
      </set>
      <set comment="kpoint 15">
       <r>   -2.7811    1.0000 </r>
       <r>   -2.7810    1.0000 </r>
       <r>   -0.0090    1.0000 </r>
       <r>   -0.0090    1.0000 </r>
       <r>    0.7199    1.0000 </r>
       <r>    0.7199    1.0000 </r>
       <r>    0.7199    1.0000 </r>
       <r>    0.7199    1.0000 </r>
       <r>    1.4277    1.0000 </r>
       <r>    1.4277    1.0000 </r>
       <r>    1.4277    1.0000 </r>
       <r>    1.4277    1.0000 </r>
       <r>    4.1202   -0.0000 </r>
       <r>    4.1202   -0.0000 </r>
       <r>   14.2120    0.0000 </r>
       <r>   14.2120    0.0000 </r>
      </set>
      <set comment="kpoint 16">
       <r>   -1.8430    1.0000 </r>
       <r>   -1.8430    1.0000 </r>
       <r>    0.2067    1.0000 </r>
       <r>    0.2067    1.0000 </r>
       <r>    0.4897    1.0000 </r>
       <r>    0.4897    1.0000 </r>
       <r>    0.8385    1.0000 </r>
       <r>    0.8385    1.0000 </r>
       <r>    1.1300    1.0000 </r>
       <r>    1.1300    1.0000 </r>
       <r>    1.3488    1.0000 </r>
       <r>    1.3488    1.0000 </r>
       <r>    5.4314   -0.0000 </r>
       <r>    5.4314   -0.0000 </r>
       <r>   15.0481    0.0000 </r>
       <r>   15.0481    0.0000 </r>
      </set>
      <set comment="kpoint 17">
       <r>   -0.8790    1.0000 </r>
       <r>   -0.8790    1.0000 </r>
       <r>   -0.1322    1.0000 </r>
       <r>   -0.1322    1.0000 </r>
       <r>    0.7318    1.0000 </r>
       <r>    0.7318    1.0000 </r>
       <r>    1.1931    1.0000 </r>
       <r>    1.1931    1.0000 </r>
       <r>    2.0284    1.0000 </r>
       <r>    2.0284    1.0000 </r>
       <r>    2.1381    1.0000 </r>
       <r>    2.1381    1.0000 </r>
       <r>    8.3483   -0.0000 </r>
       <r>    8.3483   -0.0000 </r>
       <r>   14.3850    0.0000 </r>
       <r>   14.3850    0.0000 </r>
      </set>
      <set comment="kpoint 18">
       <r>   -1.0414    1.0000 </r>
       <r>   -1.0414    1.0000 </r>
       <r>   -0.4092    1.0000 </r>
       <r>   -0.4092    1.0000 </r>
       <r>    0.9917    1.0000 </r>
       <r>    0.9917    1.0000 </r>
       <r>    1.1163    1.0000 </r>
       <r>    1.1163    1.0000 </r>
       <r>    2.5271    1.0012 </r>
       <r>    2.5271    1.0012 </r>
       <r>    5.3941   -0.0000 </r>
       <r>    5.3941   -0.0000 </r>
       <r>    9.3215    0.0000 </r>
       <r>    9.3215    0.0000 </r>
       <r>   11.7845    0.0000 </r>
       <r>   11.7845    0.0000 </r>
      </set>
      <set comment="kpoint 19">
       <r>   -0.4584    1.0000 </r>
       <r>   -0.4584    1.0000 </r>
       <r>    0.0870    1.0000 </r>
       <r>    0.0870    1.0000 </r>
       <r>    0.1107    1.0000 </r>
       <r>    0.1107    1.0000 </r>
       <r>    0.8912    1.0000 </r>
       <r>    0.8912    1.0000 </r>
       <r>    1.1354    1.0000 </r>
       <r>    1.1354    1.0000 </r>
       <r>    2.2992    1.0000 </r>
       <r>    2.2992    1.0000 </r>
       <r>    7.4828   -0.0000 </r>
       <r>    7.4828   -0.0000 </r>
       <r>   16.5255    0.0000 </r>
       <r>   16.5255    0.0000 </r>
      </set>
      <set comment="kpoint 20">
       <r>   -0.4699    1.0000 </r>
       <r>   -0.4699    1.0000 </r>
       <r>   -0.1979    1.0000 </r>
       <r>   -0.1979    1.0000 </r>
       <r>    0.8387    1.0000 </r>
       <r>    0.8387    1.0000 </r>
       <r>    0.8711    1.0000 </r>
       <r>    0.8711    1.0000 </r>
       <r>    1.4429    1.0000 </r>
       <r>    1.4429    1.0000 </r>
       <r>    5.4807   -0.0000 </r>
       <r>    5.4807   -0.0000 </r>
       <r>   10.8347    0.0000 </r>
       <r>   10.8347    0.0000 </r>
       <r>   11.9630    0.0000 </r>
       <r>   11.9630    0.0000 </r>
      </set>
      <set comment="kpoint 21">
       <r>    0.2108    1.0000 </r>
       <r>    0.2108    1.0000 </r>
       <r>    0.2120    1.0000 </r>
       <r>    0.2120    1.0000 </r>
       <r>    0.4637    1.0000 </r>
       <r>    0.4637    1.0000 </r>
       <r>    0.4670    1.0000 </r>
       <r>    0.4670    1.0000 </r>
       <r>    0.9686    1.0000 </r>
       <r>    0.9686    1.0000 </r>
       <r>    9.9911    0.0000 </r>
       <r>    9.9911    0.0000 </r>
       <r>   10.0700    0.0000 </r>
       <r>   10.0700    0.0000 </r>
       <r>   11.6066    0.0000 </r>
       <r>   11.6066    0.0000 </r>
      </set>
     </set>
     <set comment="spin 2">
      <set comment="kpoint 1">
       <r>   -2.7780    1.0000 </r>
       <r>   -2.1345    1.0000 </r>
       <r>    1.4961    1.0000 </r>
       <r>    2.1814    1.0000 </r>
       <r>    2.5713    1.0031 </r>
       <r>    2.5713    1.0031 </r>
       <r>    2.5721    1.0032 </r>
       <r>    2.5721    1.0032 </r>
       <r>    2.7061    1.0236 </r>
       <r>    3.8516   -0.0000 </r>
       <r>    3.8516   -0.0000 </r>
       <r>    3.8561   -0.0000 </r>
       <r>    3.8561   -0.0000 </r>
       <r>    6.6991   -0.0000 </r>
       <r>   11.1987    0.0000 </r>
       <r>   18.7853    0.0000 </r>
      </set>
      <set comment="kpoint 2">
       <r>   -1.7840    1.0000 </r>
       <r>   -1.1463    1.0000 </r>
       <r>    1.8508    1.0000 </r>
       <r>    1.9885    1.0000 </r>
       <r>    2.2526    1.0000 </r>
       <r>    2.2691    1.0000 </r>
       <r>    2.9174    0.8872 </r>
       <r>    2.9503    0.7889 </r>
       <r>    3.0290    0.4776 </r>
       <r>    3.0303    0.4724 </r>
       <r>    3.7554   -0.0000 </r>
       <r>    3.7644   -0.0000 </r>
       <r>    4.6764   -0.0000 </r>
       <r>    8.3927   -0.0000 </r>
       <r>   11.7387    0.0000 </r>
       <r>   19.9759    0.0000 </r>
      </set>
      <set comment="kpoint 3">
       <r>    0.1786    1.0000 </r>
       <r>    0.4047    1.0000 </r>
       <r>    1.6278    1.0000 </r>
       <r>    1.9726    1.0000 </r>
       <r>    2.3898    1.0000 </r>
       <r>    2.7660    1.0349 </r>
       <r>    2.8471    1.0084 </r>
       <r>    3.5382   -0.0008 </r>
       <r>    3.5674   -0.0004 </r>
       <r>    3.5829   -0.0003 </r>
       <r>    4.0476   -0.0000 </r>
       <r>    4.0484   -0.0000 </r>
       <r>    7.1710   -0.0000 </r>
       <r>   11.6866    0.0000 </r>
       <r>   13.1943    0.0000 </r>
       <r>   14.7124    0.0000 </r>
      </set>
      <set comment="kpoint 4">
       <r>    0.3527    1.0000 </r>
       <r>    0.3675    1.0000 </r>
       <r>    1.4863    1.0000 </r>
       <r>    1.6000    1.0000 </r>
       <r>    3.1915    0.0007 </r>
       <r>    3.3330   -0.0256 </r>
       <r>    3.4752   -0.0032 </r>
       <r>    3.4935   -0.0022 </r>
       <r>    4.6249   -0.0000 </r>
       <r>    4.6250   -0.0000 </r>
       <r>    5.2635   -0.0000 </r>
       <r>    5.6414   -0.0000 </r>
       <r>   10.0954    0.0000 </r>
       <r>   10.7394    0.0000 </r>
       <r>   10.9642    0.0000 </r>
       <r>   11.8510    0.0000 </r>
      </set>
      <set comment="kpoint 5">
       <r>   -0.0365    1.0000 </r>
       <r>    0.4908    1.0000 </r>
       <r>    1.7672    1.0000 </r>
       <r>    1.7735    1.0000 </r>
       <r>    1.7791    1.0000 </r>
       <r>    2.2699    1.0000 </r>
       <r>    2.4464    1.0002 </r>
       <r>    3.2316   -0.0287 </r>
       <r>    3.4914   -0.0023 </r>
       <r>    3.5035   -0.0018 </r>
       <r>    4.0109   -0.0000 </r>
       <r>    4.1446   -0.0000 </r>
       <r>    6.3912   -0.0000 </r>
       <r>   10.7846    0.0000 </r>
       <r>   12.9139    0.0000 </r>
       <r>   18.5978    0.0000 </r>
      </set>
      <set comment="kpoint 6">
       <r>    0.9499    1.0000 </r>
       <r>    0.9849    1.0000 </r>
       <r>    1.7050    1.0000 </r>
       <r>    1.8726    1.0000 </r>
       <r>    2.6604    1.0138 </r>
       <r>    2.7318    1.0294 </r>
       <r>    3.1282    0.1181 </r>
       <r>    3.1326    0.1067 </r>
       <r>    3.1472    0.0724 </r>
       <r>    3.4568   -0.0045 </r>
       <r>    6.1107   -0.0000 </r>
       <r>    6.7843   -0.0000 </r>
       <r>    9.7612    0.0000 </r>
       <r>   11.9469    0.0000 </r>
       <r>   12.9926    0.0000 </r>
       <r>   13.9721    0.0000 </r>
      </set>
      <set comment="kpoint 7">
       <r>    1.9110    1.0000 </r>
       <r>    1.9420    1.0000 </r>
       <r>    1.9420    1.0000 </r>
       <r>    1.9800    1.0000 </r>
       <r>    2.2701    1.0000 </r>
       <r>    2.3321    1.0000 </r>
       <r>    2.3321    1.0000 </r>
       <r>    2.3989    1.0000 </r>
       <r>    3.3245   -0.0275 </r>
       <r>    3.3245   -0.0275 </r>
       <r>   10.2109    0.0000 </r>
       <r>   10.5086    0.0000 </r>
       <r>   10.5086    0.0000 </r>
       <r>   11.2047    0.0000 </r>
       <r>   12.7961    0.0000 </r>
       <r>   12.7961    0.0000 </r>
      </set>
      <set comment="kpoint 8">
       <r>   -2.6970    1.0000 </r>
       <r>   -2.2450    1.0000 </r>
       <r>    1.5259    1.0000 </r>
       <r>    1.8715    1.0000 </r>
       <r>    2.5713    1.0031 </r>
       <r>    2.5713    1.0031 </r>
       <r>    2.5721    1.0032 </r>
       <r>    2.5721    1.0032 </r>
       <r>    3.3776   -0.0156 </r>
       <r>    3.8523   -0.0000 </r>
       <r>    3.8523   -0.0000 </r>
       <r>    3.8554   -0.0000 </r>
       <r>    3.8554   -0.0000 </r>
       <r>    5.9313   -0.0000 </r>
       <r>   12.2463    0.0000 </r>
       <r>   16.9878    0.0000 </r>
      </set>
      <set comment="kpoint 9">
       <r>   -1.7039    1.0000 </r>
       <r>   -1.2562    1.0000 </r>
       <r>    1.8599    1.0000 </r>
       <r>    1.9488    1.0000 </r>
       <r>    2.2574    1.0000 </r>
       <r>    2.2679    1.0000 </r>
       <r>    2.9314    0.8485 </r>
       <r>    2.9507    0.7875 </r>
       <r>    3.0292    0.4770 </r>
       <r>    3.0301    0.4730 </r>
       <r>    3.7567   -0.0000 </r>
       <r>    3.7631   -0.0000 </r>
       <r>    5.0674   -0.0000 </r>
       <r>    7.4831   -0.0000 </r>
       <r>   12.9563    0.0000 </r>
       <r>   17.9375    0.0000 </r>
      </set>
      <set comment="kpoint 10">
       <r>    0.2107    1.0000 </r>
       <r>    0.3705    1.0000 </r>
       <r>    1.6609    1.0000 </r>
       <r>    1.8828    1.0000 </r>
       <r>    2.5415    1.0017 </r>
       <r>    2.7676    1.0350 </r>
       <r>    2.8549    1.0006 </r>
       <r>    3.3450   -0.0228 </r>
       <r>    3.5697   -0.0004 </r>
       <r>    3.5806   -0.0003 </r>
       <r>    4.0476   -0.0000 </r>
       <r>    4.0483   -0.0000 </r>
       <r>    7.6377   -0.0000 </r>
       <r>   10.3843    0.0000 </r>
       <r>   14.3852    0.0000 </r>
       <r>   14.8739    0.0000 </r>
      </set>
      <set comment="kpoint 11">
       <r>    0.3545    1.0000 </r>
       <r>    0.3651    1.0000 </r>
       <r>    1.5007    1.0000 </r>
       <r>    1.5805    1.0000 </r>
       <r>    3.2213   -0.0238 </r>
       <r>    3.3237   -0.0277 </r>
       <r>    3.4777   -0.0030 </r>
       <r>    3.4908   -0.0023 </r>
       <r>    4.6249   -0.0000 </r>
       <r>    4.6250   -0.0000 </r>
       <r>    5.2978   -0.0000 </r>
       <r>    5.5664   -0.0000 </r>
       <r>   10.0866    0.0000 </r>
       <r>   10.3734    0.0000 </r>
       <r>   11.5516    0.0000 </r>
       <r>   12.0535    0.0000 </r>
      </set>
      <set comment="kpoint 12">
       <r>    0.0304    1.0000 </r>
       <r>    0.4000    1.0000 </r>
       <r>    1.7682    1.0000 </r>
       <r>    1.7722    1.0000 </r>
       <r>    1.8370    1.0000 </r>
       <r>    2.1397    1.0000 </r>
       <r>    2.6062    1.0060 </r>
       <r>    3.1135    0.1595 </r>
       <r>    3.4933   -0.0022 </r>
       <r>    3.5018   -0.0019 </r>
       <r>    4.0168   -0.0000 </r>
       <r>    4.0951   -0.0000 </r>
       <r>    6.8624   -0.0000 </r>
       <r>    9.5851    0.0000 </r>
       <r>   14.4000    0.0000 </r>
       <r>   18.6991    0.0000 </r>
      </set>
      <set comment="kpoint 13">
       <r>    0.9546    1.0000 </r>
       <r>    0.9793    1.0000 </r>
       <r>    1.7251    1.0000 </r>
       <r>    1.8417    1.0000 </r>
       <r>    2.6812    1.0180 </r>
       <r>    2.7287    1.0287 </r>
       <r>    3.1236    0.1303 </r>
       <r>    3.1421    0.0838 </r>
       <r>    3.1849    0.0086 </r>
       <r>    3.4103   -0.0099 </r>
       <r>    6.1705   -0.0000 </r>
       <r>    6.6244   -0.0000 </r>
       <r>   10.2036    0.0000 </r>
       <r>   11.9528    0.0000 </r>
       <r>   12.6908    0.0000 </r>
       <r>   13.2186    0.0000 </r>
      </set>
      <set comment="kpoint 14">
       <r>    1.9189    1.0000 </r>
       <r>    1.9431    1.0000 </r>
       <r>    1.9431    1.0000 </r>
       <r>    1.9668    1.0000 </r>
       <r>    2.2919    1.0000 </r>
       <r>    2.3292    1.0000 </r>
       <r>    2.3292    1.0000 </r>
       <r>    2.3819    1.0000 </r>
       <r>    3.3271   -0.0269 </r>
       <r>    3.3271   -0.0269 </r>
       <r>   10.3219    0.0000 </r>
       <r>   10.5263    0.0000 </r>
       <r>   10.5263    0.0000 </r>
       <r>   11.0067    0.0000 </r>
       <r>   12.4906    0.0000 </r>
       <r>   12.4906    0.0000 </r>
      </set>
      <set comment="kpoint 15">
       <r>   -2.4854    1.0000 </r>
       <r>   -2.4854    1.0000 </r>
       <r>    1.6329    1.0000 </r>
       <r>    1.6329    1.0000 </r>
       <r>    2.5717    1.0032 </r>
       <r>    2.5717    1.0032 </r>
       <r>    2.5717    1.0032 </r>
       <r>    2.5717    1.0032 </r>
       <r>    3.8539   -0.0000 </r>
       <r>    3.8539   -0.0000 </r>
       <r>    3.8539   -0.0000 </r>
       <r>    3.8539   -0.0000 </r>
       <r>    4.5789   -0.0000 </r>
       <r>    4.5789   -0.0000 </r>
       <r>   14.4368    0.0000 </r>
       <r>   14.4368    0.0000 </r>
      </set>
      <set comment="kpoint 16">
       <r>   -1.4946    1.0000 </r>
       <r>   -1.4946    1.0000 </r>
       <r>    1.8917    1.0000 </r>
       <r>    1.8917    1.0000 </r>
       <r>    2.2640    1.0000 </r>
       <r>    2.2640    1.0000 </r>
       <r>    2.9467    0.8009 </r>
       <r>    2.9467    0.8009 </r>
       <r>    3.0297    0.4750 </r>
       <r>    3.0297    0.4750 </r>
       <r>    3.7600   -0.0000 </r>
       <r>    3.7600   -0.0000 </r>
       <r>    6.1039   -0.0000 </r>
       <r>    6.1039   -0.0000 </r>
       <r>   15.2792    0.0000 </r>
       <r>   15.2792    0.0000 </r>
      </set>
      <set comment="kpoint 17">
       <r>    0.2896    1.0000 </r>
       <r>    0.2896    1.0000 </r>
       <r>    1.7524    1.0000 </r>
       <r>    1.7524    1.0000 </r>
       <r>    2.7420    1.0314 </r>
       <r>    2.7420    1.0314 </r>
       <r>    2.9921    0.6321 </r>
       <r>    2.9921    0.6321 </r>
       <r>    3.5752   -0.0003 </r>
       <r>    3.5752   -0.0003 </r>
       <r>    4.0480   -0.0000 </r>
       <r>    4.0480   -0.0000 </r>
       <r>    8.8116    0.0000 </r>
       <r>    8.8116    0.0000 </r>
       <r>   14.9397    0.0000 </r>
       <r>   14.9397    0.0000 </r>
      </set>
      <set comment="kpoint 18">
       <r>    0.3595    1.0000 </r>
       <r>    0.3595    1.0000 </r>
       <r>    1.5382    1.0000 </r>
       <r>    1.5382    1.0000 </r>
       <r>    3.2828   -0.0348 </r>
       <r>    3.2828   -0.0348 </r>
       <r>    3.4844   -0.0027 </r>
       <r>    3.4844   -0.0027 </r>
       <r>    4.6250   -0.0000 </r>
       <r>    4.6250   -0.0000 </r>
       <r>    5.4120   -0.0000 </r>
       <r>    5.4120   -0.0000 </r>
       <r>   10.1451    0.0000 </r>
       <r>   10.1451    0.0000 </r>
       <r>   12.1457    0.0000 </r>
       <r>   12.1457    0.0000 </r>
      </set>
      <set comment="kpoint 19">
       <r>    0.2039    1.0000 </r>
       <r>    0.2039    1.0000 </r>
       <r>    1.7702    1.0000 </r>
       <r>    1.7702    1.0000 </r>
       <r>    1.9727    1.0000 </r>
       <r>    1.9727    1.0000 </r>
       <r>    2.8601    0.9946 </r>
       <r>    2.8601    0.9946 </r>
       <r>    3.4974   -0.0020 </r>
       <r>    3.4974   -0.0020 </r>
       <r>    4.0400   -0.0000 </r>
       <r>    4.0400   -0.0000 </r>
       <r>    8.0323   -0.0000 </r>
       <r>    8.0323   -0.0000 </r>
       <r>   16.8088    0.0000 </r>
       <r>   16.8088    0.0000 </r>
      </set>
      <set comment="kpoint 20">
       <r>    0.9665    1.0000 </r>
       <r>    0.9665    1.0000 </r>
       <r>    1.7783    1.0000 </r>
       <r>    1.7783    1.0000 </r>
       <r>    2.7131    1.0252 </r>
       <r>    2.7131    1.0252 </r>
       <r>    3.1322    0.1077 </r>
       <r>    3.1322    0.1076 </r>
       <r>    3.2966   -0.0330 </r>
       <r>    3.2966   -0.0330 </r>
       <r>    6.3533   -0.0000 </r>
       <r>    6.3533   -0.0000 </r>
       <r>   11.2366    0.0000 </r>
       <r>   11.2366    0.0000 </r>
       <r>   12.5876    0.0000 </r>
       <r>   12.5876    0.0000 </r>
      </set>
      <set comment="kpoint 21">
       <r>    1.9403    1.0000 </r>
       <r>    1.9403    1.0000 </r>
       <r>    1.9441    1.0000 </r>
       <r>    1.9441    1.0000 </r>
       <r>    2.3264    1.0000 </r>
       <r>    2.3264    1.0000 </r>
       <r>    2.3392    1.0000 </r>
       <r>    2.3392    1.0000 </r>
       <r>    3.3296   -0.0263 </r>
       <r>    3.3296   -0.0263 </r>
       <r>   10.5454    0.0000 </r>
       <r>   10.5454    0.0000 </r>
       <r>   10.6251    0.0000 </r>
       <r>   10.6251    0.0000 </r>
       <r>   12.2913    0.0000 </r>
       <r>   12.2913    0.0000 </r>
      </set>
     </set>
    </set>
   </array>
  </eigenvalues>
  <separator name="orbital magnetization" >
   <v name="MAGDIPOLOUT">      0.00000000      0.00000000      0.00000000</v>
  </separator>
  <dos>
   <i name="efermi">      3.02376456 </i>
   <total>
    <array>
     <dimension dim="1">gridpoints</dimension>
     <dimension dim="2">spin</dimension>
     <field>energy</field>
     <field>total</field>
     <field>integrated</field>
     <set>
      <set comment="spin 1">
       <r>    -5.0064     0.0000     0.0000 </r>
       <r>    -4.9165     0.0000     0.0000 </r>
       <r>    -4.8265     0.0000     0.0000 </r>
       <r>    -4.7366     0.0000     0.0000 </r>
       <r>    -4.6467    -0.0000    -0.0000 </r>
       <r>    -4.5567    -0.0000    -0.0000 </r>
       <r>    -4.4668    -0.0000    -0.0000 </r>
       <r>    -4.3768    -0.0000    -0.0000 </r>
       <r>    -4.2869    -0.0000    -0.0000 </r>
       <r>    -4.1969    -0.0000    -0.0000 </r>
       <r>    -4.1070    -0.0000    -0.0000 </r>
       <r>    -4.0171    -0.0000    -0.0000 </r>
       <r>    -3.9271    -0.0000    -0.0000 </r>
       <r>    -3.8372    -0.0000    -0.0000 </r>
       <r>    -3.7472    -0.0000    -0.0000 </r>
       <r>    -3.6573    -0.0000    -0.0000 </r>
       <r>    -3.5674    -0.0000    -0.0000 </r>
       <r>    -3.4774    -0.0002    -0.0000 </r>
       <r>    -3.3875    -0.0011    -0.0001 </r>
       <r>    -3.2975    -0.0034    -0.0004 </r>
       <r>    -3.2076    -0.0033    -0.0007 </r>
       <r>    -3.1177     0.0114     0.0003 </r>
       <r>    -3.0277     0.0480     0.0046 </r>
       <r>    -2.9378     0.0860     0.0124 </r>
       <r>    -2.8478     0.0992     0.0213 </r>
       <r>    -2.7579     0.0954     0.0299 </r>
       <r>    -2.6679     0.0958     0.0385 </r>
       <r>    -2.5780     0.0941     0.0469 </r>
       <r>    -2.4881     0.0678     0.0530 </r>
       <r>    -2.3981     0.0194     0.0548 </r>
       <r>    -2.3082    -0.0228     0.0527 </r>
       <r>    -2.2182    -0.0142     0.0515 </r>
       <r>    -2.1283     0.1178     0.0621 </r>
       <r>    -2.0384     0.3756     0.0958 </r>
       <r>    -1.9484     0.6030     0.1501 </r>
       <r>    -1.8585     0.6872     0.2119 </r>
       <r>    -1.7685     0.6965     0.2745 </r>
       <r>    -1.6786     0.6511     0.3331 </r>
       <r>    -1.5887     0.4626     0.3747 </r>
       <r>    -1.4987     0.1861     0.3914 </r>
       <r>    -1.4088    -0.0078     0.3907 </r>
       <r>    -1.3188    -0.0763     0.3839 </r>
       <r>    -1.2289    -0.0338     0.3808 </r>
       <r>    -1.1389     0.2170     0.4004 </r>
       <r>    -1.0490     0.7405     0.4670 </r>
       <r>    -0.9591     1.3416     0.5876 </r>
       <r>    -0.8691     1.5585     0.7278 </r>
       <r>    -0.7792     1.0578     0.8229 </r>
       <r>    -0.6892     0.4290     0.8615 </r>
       <r>    -0.5993     1.0164     0.9529 </r>
       <r>    -0.5094     2.9980     1.2226 </r>
       <r>    -0.4194     4.4661     1.6243 </r>
       <r>    -0.3295     4.2449     2.0060 </r>
       <r>    -0.2395     3.7089     2.3396 </r>
       <r>    -0.1496     3.7003     2.6724 </r>
       <r>    -0.0597     3.5363     2.9905 </r>
       <r>     0.0303     3.4035     3.2966 </r>
       <r>     0.1202     3.6222     3.6224 </r>
       <r>     0.2102     3.3474     3.9235 </r>
       <r>     0.3001     2.4204     4.1412 </r>
       <r>     0.3901     2.0706     4.3274 </r>
       <r>     0.4800     2.5585     4.5575 </r>
       <r>     0.5699     2.7463     4.8045 </r>
       <r>     0.6599     2.9223     5.0673 </r>
       <r>     0.7498     4.7235     5.4922 </r>
       <r>     0.8398     7.3858     6.1565 </r>
       <r>     0.9297     7.9692     6.8732 </r>
       <r>     1.0196     6.4297     7.4515 </r>
       <r>     1.1096     5.4563     7.9423 </r>
       <r>     1.1995     5.3286     8.4215 </r>
       <r>     1.2895     4.8375     8.8566 </r>
       <r>     1.3794     4.3139     9.2446 </r>
       <r>     1.4693     3.7845     9.5850 </r>
       <r>     1.5593     2.5312     9.8127 </r>
       <r>     1.6492     1.0062     9.9032 </r>
       <r>     1.7392     0.2108     9.9221 </r>
       <r>     1.8291     0.2762     9.9470 </r>
       <r>     1.9191     0.8100    10.0198 </r>
       <r>     2.0090     1.4741    10.1524 </r>
       <r>     2.0989     1.8351    10.3175 </r>
       <r>     2.1889     1.6313    10.4642 </r>
       <r>     2.2788     1.1533    10.5679 </r>
       <r>     2.3688     0.9294    10.6515 </r>
       <r>     2.4587     1.1898    10.7585 </r>
       <r>     2.5486     1.4825    10.8919 </r>
       <r>     2.6386     1.2283    11.0023 </r>
       <r>     2.7285     0.6257    11.0586 </r>
       <r>     2.8185     0.1969    11.0763 </r>
       <r>     2.9084     0.0342    11.0794 </r>
       <r>     2.9983    -0.0090    11.0786 </r>
       <r>     3.0883    -0.0140    11.0773 </r>
       <r>     3.1782    -0.0078    11.0766 </r>
       <r>     3.2682    -0.0034    11.0763 </r>
       <r>     3.3581    -0.0050    11.0759 </r>
       <r>     3.4481    -0.0089    11.0751 </r>
       <r>     3.5380     0.0055    11.0756 </r>
       <r>     3.6279     0.0678    11.0817 </r>
       <r>     3.7179     0.1494    11.0951 </r>
       <r>     3.8078     0.1568    11.1092 </r>
       <r>     3.8978     0.0748    11.1159 </r>
       <r>     3.9877     0.0152    11.1173 </r>
       <r>     4.0776     0.0847    11.1249 </r>
       <r>     4.1676     0.2631    11.1486 </r>
       <r>     4.2575     0.3773    11.1825 </r>
       <r>     4.3475     0.2895    11.2085 </r>
       <r>     4.4374     0.1048    11.2180 </r>
       <r>     4.5273    -0.0027    11.2177 </r>
       <r>     4.6173    -0.0185    11.2161 </r>
       <r>     4.7072    -0.0111    11.2151 </r>
       <r>     4.7972    -0.0191    11.2133 </r>
       <r>     4.8871    -0.0470    11.2091 </r>
       <r>     4.9771    -0.0351    11.2060 </r>
       <r>     5.0670     0.1830    11.2224 </r>
       <r>     5.1569     0.6827    11.2838 </r>
       <r>     5.2469     1.1849    11.3904 </r>
       <r>     5.3368     1.4082    11.5170 </r>
       <r>     5.4268     1.4659    11.6489 </r>
       <r>     5.5167     1.3728    11.7724 </r>
       <r>     5.6066     0.9960    11.8619 </r>
       <r>     5.6966     0.6843    11.9235 </r>
       <r>     5.7865     0.7699    11.9927 </r>
       <r>     5.8765     0.9044    12.0741 </r>
       <r>     5.9664     0.7302    12.1398 </r>
       <r>     6.0563     0.4014    12.1759 </r>
       <r>     6.1463     0.2061    12.1944 </r>
       <r>     6.2362     0.2392    12.2159 </r>
       <r>     6.3262     0.3264    12.2453 </r>
       <r>     6.4161     0.2586    12.2685 </r>
       <r>     6.5061     0.1056    12.2780 </r>
       <r>     6.5960     0.0542    12.2829 </r>
       <r>     6.6859     0.1225    12.2939 </r>
       <r>     6.7759     0.2234    12.3140 </r>
       <r>     6.8658     0.3152    12.3423 </r>
       <r>     6.9558     0.3562    12.3744 </r>
       <r>     7.0457     0.3353    12.4045 </r>
       <r>     7.1356     0.3301    12.4342 </r>
       <r>     7.2256     0.3154    12.4626 </r>
       <r>     7.3155     0.2417    12.4843 </r>
       <r>     7.4055     0.2354    12.5055 </r>
       <r>     7.4954     0.3096    12.5334 </r>
       <r>     7.5853     0.2769    12.5583 </r>
       <r>     7.6753     0.1426    12.5711 </r>
       <r>     7.7652     0.0954    12.5797 </r>
       <r>     7.8552     0.1433    12.5926 </r>
       <r>     7.9451     0.1386    12.6050 </r>
       <r>     8.0351     0.0533    12.6098 </r>
       <r>     8.1250    -0.0016    12.6097 </r>
       <r>     8.2149     0.0705    12.6160 </r>
       <r>     8.3049     0.2443    12.6380 </r>
       <r>     8.3948     0.3417    12.6687 </r>
       <r>     8.4848     0.2427    12.6906 </r>
       <r>     8.5747     0.0724    12.6971 </r>
       <r>     8.6646    -0.0183    12.6954 </r>
       <r>     8.7546    -0.0348    12.6923 </r>
       <r>     8.8445    -0.0038    12.6919 </r>
       <r>     8.9345     0.1116    12.7020 </r>
       <r>     9.0244     0.2869    12.7278 </r>
       <r>     9.1143     0.4062    12.7643 </r>
       <r>     9.2043     0.4621    12.8059 </r>
       <r>     9.2942     0.5364    12.8541 </r>
       <r>     9.3842     0.5697    12.9054 </r>
       <r>     9.4741     0.4479    12.9456 </r>
       <r>     9.5641     0.2644    12.9694 </r>
       <r>     9.6540     0.2635    12.9931 </r>
       <r>     9.7439     0.5943    13.0466 </r>
       <r>     9.8339     1.1278    13.1480 </r>
       <r>     9.9238     1.4369    13.2772 </r>
       <r>    10.0138     1.2463    13.3893 </r>
       <r>    10.1037     0.7729    13.4588 </r>
       <r>    10.1936     0.3607    13.4913 </r>
       <r>    10.2836     0.1504    13.5048 </r>
       <r>    10.3735     0.1297    13.5165 </r>
       <r>    10.4635     0.1720    13.5319 </r>
       <r>    10.5534     0.1456    13.5450 </r>
       <r>    10.6433     0.1246    13.5562 </r>
       <r>    10.7333     0.3025    13.5835 </r>
       <r>    10.8232     0.6107    13.6384 </r>
       <r>    10.9132     0.7096    13.7022 </r>
       <r>    11.0031     0.5353    13.7503 </r>
       <r>    11.0931     0.3505    13.7819 </r>
       <r>    11.1830     0.3466    13.8130 </r>
       <r>    11.2729     0.6289    13.8696 </r>
       <r>    11.3629     1.0159    13.9610 </r>
       <r>    11.4528     1.0374    14.0543 </r>
       <r>    11.5428     0.6711    14.1147 </r>
       <r>    11.6327     0.3854    14.1493 </r>
       <r>    11.7226     0.4266    14.1877 </r>
       <r>    11.8126     0.6640    14.2474 </r>
       <r>    11.9025     0.9434    14.3323 </r>
       <r>    11.9925     1.1981    14.4400 </r>
       <r>    12.0824     1.2507    14.5525 </r>
       <r>    12.1723     0.9652    14.6393 </r>
       <r>    12.2623     0.5637    14.6900 </r>
       <r>    12.3522     0.3221    14.7190 </r>
       <r>    12.4422     0.2219    14.7389 </r>
       <r>    12.5321     0.3106    14.7669 </r>
       <r>    12.6221     0.7234    14.8319 </r>
       <r>    12.7120     1.0968    14.9306 </r>
       <r>    12.8019     0.9347    15.0146 </r>
       <r>    12.8919     0.4572    15.0558 </r>
       <r>    12.9818     0.1727    15.0713 </r>
       <r>    13.0718     0.1085    15.0811 </r>
       <r>    13.1617     0.0672    15.0871 </r>
       <r>    13.2516     0.0709    15.0935 </r>
       <r>    13.3416     0.2027    15.1117 </r>
       <r>    13.4315     0.3300    15.1414 </r>
       <r>    13.5215     0.2699    15.1657 </r>
       <r>    13.6114     0.0904    15.1738 </r>
       <r>    13.7013    -0.0086    15.1730 </r>
       <r>    13.7913     0.0574    15.1782 </r>
       <r>    13.8812     0.2212    15.1981 </r>
       <r>    13.9712     0.3311    15.2279 </r>
       <r>    14.0611     0.3704    15.2612 </r>
       <r>    14.1511     0.4784    15.3042 </r>
       <r>    14.2410     0.6547    15.3631 </r>
       <r>    14.3309     0.7914    15.4343 </r>
       <r>    14.4209     0.7816    15.5046 </r>
       <r>    14.5108     0.5282    15.5521 </r>
       <r>    14.6008     0.1772    15.5680 </r>
       <r>    14.6907    -0.0220    15.5660 </r>
       <r>    14.7806    -0.0529    15.5613 </r>
       <r>    14.8706     0.0085    15.5620 </r>
       <r>    14.9605     0.1592    15.5764 </r>
       <r>    15.0505     0.3184    15.6050 </r>
       <r>    15.1404     0.3134    15.6332 </r>
       <r>    15.2303     0.1529    15.6469 </r>
       <r>    15.3203     0.0184    15.6486 </r>
       <r>    15.4102    -0.0177    15.6470 </r>
       <r>    15.5002    -0.0101    15.6461 </r>
       <r>    15.5901    -0.0025    15.6459 </r>
       <r>    15.6800    -0.0004    15.6458 </r>
       <r>    15.7700    -0.0000    15.6458 </r>
       <r>    15.8599    -0.0000    15.6458 </r>
       <r>    15.9499    -0.0002    15.6458 </r>
       <r>    16.0398    -0.0013    15.6457 </r>
       <r>    16.1298    -0.0065    15.6451 </r>
       <r>    16.2197    -0.0165    15.6436 </r>
       <r>    16.3096    -0.0049    15.6432 </r>
       <r>    16.3996     0.0910    15.6514 </r>
       <r>    16.4895     0.2609    15.6748 </r>
       <r>    16.5795     0.3389    15.7053 </r>
       <r>    16.6694     0.2319    15.7262 </r>
       <r>    16.7593     0.0885    15.7341 </r>
       <r>    16.8493     0.0402    15.7378 </r>
       <r>    16.9392     0.0387    15.7412 </r>
       <r>    17.0292     0.0225    15.7433 </r>
       <r>    17.1191     0.0031    15.7435 </r>
       <r>    17.2090    -0.0033    15.7432 </r>
       <r>    17.2990    -0.0038    15.7429 </r>
       <r>    17.3889    -0.0091    15.7421 </r>
       <r>    17.4789    -0.0178    15.7405 </r>
       <r>    17.5688     0.0083    15.7412 </r>
       <r>    17.6588     0.1295    15.7529 </r>
       <r>    17.7487     0.2968    15.7796 </r>
       <r>    17.8386     0.3278    15.8091 </r>
       <r>    17.9286     0.1755    15.8248 </r>
       <r>    18.0185     0.0133    15.8260 </r>
       <r>    18.1085    -0.0090    15.8252 </r>
       <r>    18.1984     0.1448    15.8382 </r>
       <r>    18.2883     0.3878    15.8731 </r>
       <r>    18.3783     0.4865    15.9169 </r>
       <r>    18.4682     0.3268    15.9463 </r>
       <r>    18.5582     0.0968    15.9550 </r>
       <r>    18.6481    -0.0083    15.9542 </r>
       <r>    18.7380    -0.0031    15.9540 </r>
       <r>    18.8280     0.0206    15.9558 </r>
       <r>    18.9179     0.0216    15.9578 </r>
       <r>    19.0079     0.0087    15.9585 </r>
       <r>    19.0978    -0.0000    15.9585 </r>
       <r>    19.1878    -0.0014    15.9584 </r>
       <r>    19.2777    -0.0006    15.9583 </r>
       <r>    19.3676    -0.0002    15.9583 </r>
       <r>    19.4576    -0.0007    15.9583 </r>
       <r>    19.5475    -0.0032    15.9580 </r>
       <r>    19.6375    -0.0082    15.9572 </r>
       <r>    19.7274    -0.0024    15.9570 </r>
       <r>    19.8173     0.0459    15.9611 </r>
       <r>    19.9073     0.1314    15.9730 </r>
       <r>    19.9972     0.1709    15.9883 </r>
       <r>    20.0872     0.1143    15.9986 </r>
       <r>    20.1771     0.0316    16.0015 </r>
       <r>    20.2670    -0.0059    16.0009 </r>
       <r>    20.3570    -0.0073    16.0003 </r>
       <r>    20.4469    -0.0024    16.0000 </r>
       <r>    20.5369    -0.0004    16.0000 </r>
       <r>    20.6268    -0.0000    16.0000 </r>
       <r>    20.7168    -0.0000    16.0000 </r>
       <r>    20.8067    -0.0000    16.0000 </r>
       <r>    20.8966    -0.0000    16.0000 </r>
       <r>    20.9866    -0.0000    16.0000 </r>
       <r>    21.0765    -0.0000    16.0000 </r>
       <r>    21.1665    -0.0000    16.0000 </r>
       <r>    21.2564     0.0000    16.0000 </r>
       <r>    21.3463     0.0000    16.0000 </r>
       <r>    21.4363     0.0000    16.0000 </r>
       <r>    21.5262     0.0000    16.0000 </r>
       <r>    21.6162     0.0000    16.0000 </r>
       <r>    21.7061     0.0000    16.0000 </r>
       <r>    21.7960     0.0000    16.0000 </r>
       <r>    21.8860     0.0000    16.0000 </r>
       <r>    21.9759     0.0000    16.0000 </r>
      </set>
      <set comment="spin 2">
       <r>    -5.0064     0.0000     0.0000 </r>
       <r>    -4.9165     0.0000     0.0000 </r>
       <r>    -4.8265     0.0000     0.0000 </r>
       <r>    -4.7366     0.0000     0.0000 </r>
       <r>    -4.6467     0.0000     0.0000 </r>
       <r>    -4.5567     0.0000     0.0000 </r>
       <r>    -4.4668    -0.0000    -0.0000 </r>
       <r>    -4.3768    -0.0000    -0.0000 </r>
       <r>    -4.2869    -0.0000    -0.0000 </r>
       <r>    -4.1969    -0.0000    -0.0000 </r>
       <r>    -4.1070    -0.0000    -0.0000 </r>
       <r>    -4.0171    -0.0000    -0.0000 </r>
       <r>    -3.9271    -0.0000    -0.0000 </r>
       <r>    -3.8372    -0.0000    -0.0000 </r>
       <r>    -3.7472    -0.0000    -0.0000 </r>
       <r>    -3.6573    -0.0000    -0.0000 </r>
       <r>    -3.5674    -0.0000    -0.0000 </r>
       <r>    -3.4774    -0.0000    -0.0000 </r>
       <r>    -3.3875    -0.0000    -0.0000 </r>
       <r>    -3.2975    -0.0001    -0.0000 </r>
       <r>    -3.2076    -0.0004    -0.0000 </r>
       <r>    -3.1177    -0.0018    -0.0002 </r>
       <r>    -3.0277    -0.0037    -0.0005 </r>
       <r>    -2.9378     0.0008    -0.0005 </r>
       <r>    -2.8478     0.0237     0.0017 </r>
       <r>    -2.7579     0.0607     0.0071 </r>
       <r>    -2.6679     0.0829     0.0146 </r>
       <r>    -2.5780     0.0786     0.0217 </r>
       <r>    -2.4881     0.0664     0.0276 </r>
       <r>    -2.3981     0.0585     0.0329 </r>
       <r>    -2.3082     0.0606     0.0383 </r>
       <r>    -2.2182     0.0706     0.0447 </r>
       <r>    -2.1283     0.0599     0.0501 </r>
       <r>    -2.0384     0.0199     0.0519 </r>
       <r>    -1.9484     0.0131     0.0530 </r>
       <r>    -1.8585     0.1314     0.0649 </r>
       <r>    -1.7685     0.3525     0.0966 </r>
       <r>    -1.6786     0.4969     0.1413 </r>
       <r>    -1.5887     0.4786     0.1843 </r>
       <r>    -1.4987     0.4050     0.2207 </r>
       <r>    -1.4088     0.3557     0.2527 </r>
       <r>    -1.3188     0.3700     0.2860 </r>
       <r>    -1.2289     0.4408     0.3256 </r>
       <r>    -1.1389     0.4203     0.3635 </r>
       <r>    -1.0490     0.2489     0.3858 </r>
       <r>    -0.9591     0.0686     0.3920 </r>
       <r>    -0.8691    -0.0106     0.3911 </r>
       <r>    -0.7792    -0.0162     0.3896 </r>
       <r>    -0.6892    -0.0063     0.3890 </r>
       <r>    -0.5993    -0.0015     0.3889 </r>
       <r>    -0.5094    -0.0014     0.3888 </r>
       <r>    -0.4194    -0.0066     0.3882 </r>
       <r>    -0.3295    -0.0203     0.3863 </r>
       <r>    -0.2395    -0.0250     0.3841 </r>
       <r>    -0.1496     0.0430     0.3880 </r>
       <r>    -0.0597     0.2304     0.4087 </r>
       <r>     0.0303     0.4875     0.4525 </r>
       <r>     0.1202     0.8127     0.5256 </r>
       <r>     0.2102     1.3277     0.6450 </r>
       <r>     0.3001     1.9407     0.8196 </r>
       <r>     0.3901     2.1646     1.0143 </r>
       <r>     0.4800     1.6264     1.1606 </r>
       <r>     0.5699     0.6707     1.2209 </r>
       <r>     0.6599    -0.0319     1.2180 </r>
       <r>     0.7498    -0.1119     1.2079 </r>
       <r>     0.8398     0.6707     1.2683 </r>
       <r>     0.9297     2.0590     1.4535 </r>
       <r>     1.0196     2.7152     1.6977 </r>
       <r>     1.1096     1.8355     1.8627 </r>
       <r>     1.1995     0.4932     1.9071 </r>
       <r>     1.2895    -0.1493     1.8937 </r>
       <r>     1.3794    -0.1274     1.8822 </r>
       <r>     1.4693     0.2140     1.9015 </r>
       <r>     1.5593     0.9248     1.9846 </r>
       <r>     1.6492     2.3880     2.1994 </r>
       <r>     1.7392     4.5714     2.6106 </r>
       <r>     1.8291     6.2374     3.1716 </r>
       <r>     1.9191     5.9651     3.7081 </r>
       <r>     2.0090     3.9554     4.0638 </r>
       <r>     2.0989     1.9808     4.2420 </r>
       <r>     2.1889     1.5218     4.3789 </r>
       <r>     2.2788     2.1322     4.5706 </r>
       <r>     2.3688     2.2878     4.7764 </r>
       <r>     2.4587     1.7637     4.9350 </r>
       <r>     2.5486     1.7808     5.0952 </r>
       <r>     2.6386     2.8810     5.3543 </r>
       <r>     2.7285     4.0092     5.7149 </r>
       <r>     2.8185     4.0977     6.0835 </r>
       <r>     2.9084     3.7460     6.4204 </r>
       <r>     2.9983     4.1887     6.7971 </r>
       <r>     3.0883     5.2931     7.2732 </r>
       <r>     3.1782     5.7400     7.7895 </r>
       <r>     3.2682     5.0056     8.2397 </r>
       <r>     3.3581     4.2095     8.6183 </r>
       <r>     3.4481     4.2385     8.9995 </r>
       <r>     3.5380     4.3099     9.3871 </r>
       <r>     3.6279     3.5057     9.7024 </r>
       <r>     3.7179     2.3732     9.9159 </r>
       <r>     3.8078     1.7392    10.0723 </r>
       <r>     3.8978     1.6828    10.2237 </r>
       <r>     3.9877     2.1776    10.4195 </r>
       <r>     4.0776     2.6395    10.6569 </r>
       <r>     4.1676     2.0888    10.8448 </r>
       <r>     4.2575     0.8420    10.9205 </r>
       <r>     4.3475     0.0071    10.9212 </r>
       <r>     4.4374    -0.0894    10.9131 </r>
       <r>     4.5273     0.2894    10.9392 </r>
       <r>     4.6173     0.7615    11.0076 </r>
       <r>     4.7072     0.8490    11.0840 </r>
       <r>     4.7972     0.4771    11.1269 </r>
       <r>     4.8871     0.1207    11.1378 </r>
       <r>     4.9771     0.1052    11.1472 </r>
       <r>     5.0670     0.2734    11.1718 </r>
       <r>     5.1569     0.3611    11.2043 </r>
       <r>     5.2469     0.3564    11.2363 </r>
       <r>     5.3368     0.3590    11.2686 </r>
       <r>     5.4268     0.3575    11.3008 </r>
       <r>     5.5167     0.3317    11.3306 </r>
       <r>     5.6066     0.2875    11.3565 </r>
       <r>     5.6966     0.1897    11.3735 </r>
       <r>     5.7865     0.0507    11.3781 </r>
       <r>     5.8765    -0.0149    11.3768 </r>
       <r>     5.9664     0.1671    11.3918 </r>
       <r>     6.0563     0.6887    11.4537 </r>
       <r>     6.1463     1.2525    11.5664 </r>
       <r>     6.2362     1.4097    11.6932 </r>
       <r>     6.3262     1.2034    11.8014 </r>
       <r>     6.4161     0.9122    11.8834 </r>
       <r>     6.5061     0.6829    11.9449 </r>
       <r>     6.5960     0.6765    12.0057 </r>
       <r>     6.6859     0.8295    12.0803 </r>
       <r>     6.7759     0.8848    12.1599 </r>
       <r>     6.8658     0.7453    12.2269 </r>
       <r>     6.9558     0.4565    12.2680 </r>
       <r>     7.0457     0.1934    12.2854 </r>
       <r>     7.1356     0.1097    12.2952 </r>
       <r>     7.2256     0.1183    12.3059 </r>
       <r>     7.3155     0.1190    12.3166 </r>
       <r>     7.4055     0.1990    12.3345 </r>
       <r>     7.4954     0.3875    12.3693 </r>
       <r>     7.5853     0.5224    12.4163 </r>
       <r>     7.6753     0.4628    12.4579 </r>
       <r>     7.7652     0.2518    12.4806 </r>
       <r>     7.8552     0.0940    12.4890 </r>
       <r>     7.9451     0.1472    12.5023 </r>
       <r>     8.0351     0.2956    12.5289 </r>
       <r>     8.1250     0.2975    12.5556 </r>
       <r>     8.2149     0.1620    12.5702 </r>
       <r>     8.3049     0.0979    12.5790 </r>
       <r>     8.3948     0.1369    12.5913 </r>
       <r>     8.4848     0.1325    12.6032 </r>
       <r>     8.5747     0.0615    12.6088 </r>
       <r>     8.6646     0.0681    12.6149 </r>
       <r>     8.7546     0.2142    12.6342 </r>
       <r>     8.8445     0.3359    12.6644 </r>
       <r>     8.9345     0.2665    12.6883 </r>
       <r>     9.0244     0.0961    12.6970 </r>
       <r>     9.1143    -0.0051    12.6965 </r>
       <r>     9.2043    -0.0249    12.6943 </r>
       <r>     9.2942    -0.0261    12.6919 </r>
       <r>     9.3842    -0.0060    12.6914 </r>
       <r>     9.4741     0.0997    12.7003 </r>
       <r>     9.5641     0.2933    12.7267 </r>
       <r>     9.6540     0.4559    12.7677 </r>
       <r>     9.7439     0.4759    12.8105 </r>
       <r>     9.8339     0.3350    12.8407 </r>
       <r>     9.9238     0.1552    12.8546 </r>
       <r>    10.0138     0.2105    12.8736 </r>
       <r>    10.1037     0.6167    12.9290 </r>
       <r>    10.1936     1.0690    13.0252 </r>
       <r>    10.2836     1.2006    13.1332 </r>
       <r>    10.3735     1.0620    13.2287 </r>
       <r>    10.4635     0.8942    13.3091 </r>
       <r>    10.5534     0.7383    13.3755 </r>
       <r>    10.6433     0.5518    13.4251 </r>
       <r>    10.7333     0.3866    13.4599 </r>
       <r>    10.8232     0.2855    13.4856 </r>
       <r>    10.9132     0.2207    13.5054 </r>
       <r>    11.0031     0.2008    13.5235 </r>
       <r>    11.0931     0.3155    13.5519 </r>
       <r>    11.1830     0.5913    13.6050 </r>
       <r>    11.2729     0.7575    13.6732 </r>
       <r>    11.3629     0.5564    13.7232 </r>
       <r>    11.4528     0.2377    13.7446 </r>
       <r>    11.5428     0.1523    13.7583 </r>
       <r>    11.6327     0.2545    13.7812 </r>
       <r>    11.7226     0.3750    13.8149 </r>
       <r>    11.8126     0.5741    13.8665 </r>
       <r>    11.9025     0.9516    13.9521 </r>
       <r>    11.9925     1.2206    14.0619 </r>
       <r>    12.0824     1.0312    14.1547 </r>
       <r>    12.1723     0.5859    14.2074 </r>
       <r>    12.2623     0.2661    14.2313 </r>
       <r>    12.3522     0.1622    14.2459 </r>
       <r>    12.4422     0.3124    14.2740 </r>
       <r>    12.5321     0.7553    14.3419 </r>
       <r>    12.6221     1.2157    14.4512 </r>
       <r>    12.7120     1.2721    14.5657 </r>
       <r>    12.8019     0.9685    14.6528 </r>
       <r>    12.8919     0.7695    14.7220 </r>
       <r>    12.9818     0.8001    14.7939 </r>
       <r>    13.0718     0.8315    14.8687 </r>
       <r>    13.1617     0.8669    14.9467 </r>
       <r>    13.2516     0.8701    15.0250 </r>
       <r>    13.3416     0.6045    15.0793 </r>
       <r>    13.4315     0.2003    15.0973 </r>
       <r>    13.5215    -0.0208    15.0955 </r>
       <r>    13.6114    -0.0515    15.0908 </r>
       <r>    13.7013    -0.0335    15.0878 </r>
       <r>    13.7913     0.0163    15.0893 </r>
       <r>    13.8812     0.1538    15.1031 </r>
       <r>    13.9712     0.3060    15.1306 </r>
       <r>    14.0611     0.2883    15.1566 </r>
       <r>    14.1511     0.1291    15.1682 </r>
       <r>    14.2410     0.1280    15.1797 </r>
       <r>    14.3309     0.4269    15.2181 </r>
       <r>    14.4209     0.7037    15.2814 </r>
       <r>    14.5108     0.5911    15.3345 </r>
       <r>    14.6008     0.2685    15.3587 </r>
       <r>    14.6907     0.1506    15.3722 </r>
       <r>    14.7806     0.3243    15.4014 </r>
       <r>    14.8706     0.5898    15.4545 </r>
       <r>    14.9605     0.6581    15.5136 </r>
       <r>    15.0505     0.4337    15.5526 </r>
       <r>    15.1404     0.2060    15.5712 </r>
       <r>    15.2303     0.2232    15.5913 </r>
       <r>    15.3203     0.3141    15.6195 </r>
       <r>    15.4102     0.2425    15.6413 </r>
       <r>    15.5002     0.0809    15.6486 </r>
       <r>    15.5901    -0.0074    15.6479 </r>
       <r>    15.6800    -0.0160    15.6465 </r>
       <r>    15.7700    -0.0060    15.6460 </r>
       <r>    15.8599    -0.0012    15.6458 </r>
       <r>    15.9499    -0.0001    15.6458 </r>
       <r>    16.0398    -0.0000    15.6458 </r>
       <r>    16.1298    -0.0000    15.6458 </r>
       <r>    16.2197    -0.0001    15.6458 </r>
       <r>    16.3096    -0.0010    15.6457 </r>
       <r>    16.3996    -0.0053    15.6453 </r>
       <r>    16.4895    -0.0153    15.6439 </r>
       <r>    16.5795    -0.0113    15.6429 </r>
       <r>    16.6694     0.0675    15.6489 </r>
       <r>    16.7593     0.2359    15.6702 </r>
       <r>    16.8493     0.3545    15.7020 </r>
       <r>    16.9392     0.2943    15.7285 </r>
       <r>    17.0292     0.1412    15.7412 </r>
       <r>    17.1191     0.0353    15.7444 </r>
       <r>    17.2090    -0.0023    15.7442 </r>
       <r>    17.2990    -0.0073    15.7435 </r>
       <r>    17.3889    -0.0042    15.7431 </r>
       <r>    17.4789    -0.0034    15.7428 </r>
       <r>    17.5688    -0.0095    15.7420 </r>
       <r>    17.6588    -0.0178    15.7404 </r>
       <r>    17.7487     0.0127    15.7415 </r>
       <r>    17.8386     0.1402    15.7541 </r>
       <r>    17.9286     0.3050    15.7816 </r>
       <r>    18.0185     0.3255    15.8108 </r>
       <r>    18.1085     0.1746    15.8265 </r>
       <r>    18.1984     0.0255    15.8288 </r>
       <r>    18.2883    -0.0303    15.8261 </r>
       <r>    18.3783    -0.0301    15.8234 </r>
       <r>    18.4682     0.0275    15.8259 </r>
       <r>    18.5582     0.1945    15.8434 </r>
       <r>    18.6481     0.4120    15.8804 </r>
       <r>    18.7380     0.4805    15.9236 </r>
       <r>    18.8280     0.3201    15.9524 </r>
       <r>    18.9179     0.1020    15.9616 </r>
       <r>    19.0079    -0.0070    15.9610 </r>
       <r>    19.0978    -0.0195    15.9592 </r>
       <r>    19.1878    -0.0080    15.9585 </r>
       <r>    19.2777    -0.0018    15.9584 </r>
       <r>    19.3676    -0.0003    15.9583 </r>
       <r>    19.4576    -0.0003    15.9583 </r>
       <r>    19.5475    -0.0019    15.9581 </r>
       <r>    19.6375    -0.0065    15.9575 </r>
       <r>    19.7274    -0.0077    15.9569 </r>
       <r>    19.8173     0.0219    15.9588 </r>
       <r>    19.9073     0.1000    15.9678 </r>
       <r>    19.9972     0.1677    15.9829 </r>
       <r>    20.0872     0.1435    15.9958 </r>
       <r>    20.1771     0.0585    16.0011 </r>
       <r>    20.2670     0.0018    16.0012 </r>
       <r>    20.3570    -0.0087    16.0004 </r>
       <r>    20.4469    -0.0040    16.0001 </r>
       <r>    20.5369    -0.0009    16.0000 </r>
       <r>    20.6268    -0.0001    16.0000 </r>
       <r>    20.7168    -0.0000    16.0000 </r>
       <r>    20.8067    -0.0000    16.0000 </r>
       <r>    20.8966    -0.0000    16.0000 </r>
       <r>    20.9866    -0.0000    16.0000 </r>
       <r>    21.0765    -0.0000    16.0000 </r>
       <r>    21.1665    -0.0000    16.0000 </r>
       <r>    21.2564    -0.0000    16.0000 </r>
       <r>    21.3463     0.0000    16.0000 </r>
       <r>    21.4363     0.0000    16.0000 </r>
       <r>    21.5262     0.0000    16.0000 </r>
       <r>    21.6162     0.0000    16.0000 </r>
       <r>    21.7061     0.0000    16.0000 </r>
       <r>    21.7960     0.0000    16.0000 </r>
       <r>    21.8860     0.0000    16.0000 </r>
       <r>    21.9759     0.0000    16.0000 </r>
      </set>
     </set>
    </array>
   </total>
  </dos>
 </calculation>
 <structure name="finalpos" >
  <crystal>
   <varray name="basis" >
    <v>       2.47000000       0.00000000       0.00000000 </v>
    <v>      -1.23500000       2.13908275       0.00000000 </v>
    <v>       0.00000000       0.00000000       8.09000000 </v>
   </varray>
   <i name="volume">     42.74379318 </i>
   <varray name="rec_basis" >
    <v>       0.40485830       0.23374505       0.00000000 </v>
    <v>       0.00000000       0.46749010       0.00000000 </v>
    <v>       0.00000000       0.00000000       0.12360939 </v>
   </varray>
  </crystal>
  <varray name="positions" >
   <v>       0.00000000       0.00000000       0.00000000 </v>
   <v>       0.33333333       0.66666667       0.50000000 </v>
  </varray>
 </structure>
</modeling>
