Pt-fcc                                  
   1.00000000000000     
     0.000000    2.018426    2.018426
     2.018426    0.000000    2.018426
     2.018426    2.018426    0.000000
   Pt
     1
Direct
  0.000000  0.000000  0.000000
 
   40   40   40
  143.94      143.81      143.05      140.67      135.48      126.58      113.76      97.717      79.917      62.207    
  46.308      33.378      23.805      17.258      12.920      9.9417      7.9457      6.6682      5.8980      5.4904    
  5.3633      5.4904      5.8980      6.6682      7.9457      9.9417      12.920      17.258      23.805      33.378    
  46.308      62.207      79.917      97.717      113.76      126.58      135.48      140.67      143.05      143.81    
  143.81      143.36      141.77      137.93      130.78      119.76      105.13      88.028      70.147      53.309    
  38.962      27.861      19.995      14.747      11.205      8.7801      7.1914      6.2004      5.6312      5.3730    
  5.3730      5.6312      6.2004      7.1914      8.7801      11.205      14.747      19.995      27.861      38.962    
  53.309      70.147      88.028      105.13      119.76      130.78      137.93      141.77      143.36      143.81    
  143.05      141.77      138.67      132.74      123.23      110.07      94.032      76.553      59.395      44.151    
  31.856      22.810      16.633      12.512      9.6647      7.7561      6.5327      5.7934      5.4014      5.2790    
  5.4014      5.7934      6.5327      7.7561      9.6647      12.512      16.633      22.810      31.856      44.151    
  59.395      76.553      94.032      110.07      123.23      132.74      138.67      141.77      143.05      143.36    
  140.67      137.93      132.74      124.36      112.53      97.694      81.018      64.084      48.491      35.442    
  25.485      18.484      13.788      10.556      8.3393      6.8840      5.9725      5.4465      5.2071      5.2071    
  5.4465      5.9725      6.8840      8.3393      10.556      13.788      18.484      25.485      35.442      48.491    
  64.084      81.018      97.694      112.53      124.36      132.74      137.93      140.67      141.77      141.77    
  135.48      130.78      123.23      112.53      98.922      83.304      67.032      51.606      38.282      27.774    
  20.158      14.961      11.399      8.9097      7.2381      6.1608      5.5051      5.1550      5.0452      5.1550    
  5.5051      6.1608      7.2381      8.9097      11.399      14.961      20.158      27.774      38.282      51.606    
  67.032      83.304      98.922      112.53      123.23      130.78      135.48      137.93      138.67      137.93    
  126.58      119.76      110.07      97.694      83.304      68.036      53.231      40.103      29.449      21.500    
  15.952      12.135      9.4306      7.5743      6.3478      5.5722      5.1200      4.9124      4.9124      5.1200    
  5.5722      6.3478      7.5743      9.4306      12.135      15.952      21.500      29.449      40.103      53.231    
  68.036      83.304      97.694      110.07      119.76      126.58      130.78      132.74      132.74      130.78    
  113.76      105.13      94.032      81.018      67.032      53.231      40.730      30.333      22.369      16.674    
  12.708      9.8639      7.8693      6.5209      5.6416      5.0989      4.8054      4.7127      4.8054      5.0989    
  5.6416      6.5209      7.8693      9.8639      12.708      16.674      22.369      30.333      40.730      53.231    
  67.032      81.018      94.032      105.13      113.76      119.76      123.23      124.36      123.23      119.76    
  97.717      88.028      76.553      64.084      51.606      40.103      30.333      22.670      17.055      13.073    
  10.175      8.1002      6.6665      5.7063      5.0883      4.7215      4.5509      4.5509      4.7215      5.0883    
  5.7063      6.6665      8.1002      10.175      13.073      17.055      22.670      30.333      40.103      51.606    
  64.084      76.553      88.028      97.717      105.13      110.07      112.53      112.53      110.07      105.13    
  79.917      70.147      59.395      48.491      38.282      29.449      22.369      17.055      13.198      10.337    
  8.2474      6.7719      5.7590      5.0844      4.6585      4.4237      4.3486      4.4237      4.6585      5.0844    
  5.7590      6.7719      8.2474      10.337      13.198      17.055      22.369      29.449      38.282      48.491    
  59.395      70.147      79.917      88.028      94.032      97.694      98.922      97.694      94.032      88.028    
  62.207      53.309      44.151      35.442      27.774      21.500      16.674      13.073      10.337      8.2981    
  6.8273      5.7935      5.0840      4.6147      4.3290      4.1937      4.1937      4.3290      4.6147      5.0840    
  5.7935      6.8273      8.2981      10.337      13.073      16.674      21.500      27.774      35.442      44.151    
  53.309      62.207      70.147      76.553      81.018      83.304      83.304      81.018      76.553      70.147    
  46.308      38.962      31.856      25.485      20.158      15.952      12.708      10.175      8.2474      6.8273    
  5.8054      5.0846      4.5890      4.2662      4.0837      4.0247      4.0837      4.2662      4.5890      5.0846    
  5.8054      6.8273      8.2474      10.175      12.708      15.952      20.158      25.485      31.856      38.962    
  46.308      53.309      59.395      64.084      67.032      68.036      67.032      64.084      59.395      53.309    
  33.378      27.861      22.810      18.484      14.961      12.135      9.8639      8.1002      6.7719      5.7935    
  5.0846      4.5805      4.2348      4.0178      3.9129      3.9129      4.0178      4.2348      4.5805      5.0846    
  5.7935      6.7719      8.1002      9.8639      12.135      14.961      18.484      22.810      27.861      33.378    
  38.962      44.151      48.491      51.606      53.231      53.231      51.606      48.491      44.151      38.962    
  23.805      19.995      16.633      13.788      11.399      9.4306      7.8693      6.6665      5.7590      5.0840    
  4.5890      4.2348      3.9958      3.8572      3.8117      3.8572      3.9958      4.2348      4.5890      5.0840    
  5.7590      6.6665      7.8693      9.4306      11.399      13.788      16.633      19.995      23.805      27.861    
  31.856      35.442      38.282      40.103      40.730      40.103      38.282      35.442      31.856      27.861    
  17.258      14.747      12.512      10.556      8.9097      7.5743      6.5209      5.7063      5.0844      4.6147    
  4.2662      4.0178      3.8572      3.7781      3.7781      3.8572      4.0178      4.2662      4.6147      5.0844    
  5.7063      6.5209      7.5743      8.9097      10.556      12.512      14.747      17.258      19.995      22.810    
  25.485      27.774      29.449      30.333      30.333      29.449      27.774      25.485      22.810      19.995    
  12.920      11.205      9.6647      8.3393      7.2381      6.3478      5.6416      5.0883      4.6585      4.3290    
  4.0837      3.9129      3.8117      3.7781      3.8117      3.9129      4.0837      4.3290      4.6585      5.0883    
  5.6416      6.3478      7.2381      8.3393      9.6648      11.205      12.920      14.747      16.633      18.484    
  20.158      21.500      22.369      22.670      22.369      21.500      20.158      18.484      16.633      14.747    
  9.9417      8.7801      7.7561      6.8840      6.1608      5.5722      5.0989      4.7215      4.4237      4.1937    
  4.0247      3.9129      3.8572      3.8572      3.9129      4.0247      4.1937      4.4237      4.7215      5.0989    
  5.5722      6.1608      6.8840      7.7561      8.7802      9.9417      11.205      12.512      13.788      14.961    
  15.952      16.674      17.055      17.055      16.674      15.952      14.961      13.788      12.512      11.205    
  7.9457      7.1914      6.5327      5.9725      5.5051      5.1200      4.8054      4.5509      4.3486      4.1937    
  4.0837      4.0178      3.9958      4.0178      4.0837      4.1937      4.3486      4.5509      4.8054      5.1200    
  5.5051      5.9725      6.5327      7.1914      7.9458      8.7802      9.6648      10.556      11.399      12.135    
  12.708      13.073      13.198      13.073      12.708      12.135      11.399      10.556      9.6647      8.7801    
  6.6682      6.2004      5.7934      5.4465      5.1550      4.9124      4.7127      4.5509      4.4237      4.3290    
  4.2662      4.2348      4.2348      4.2662      4.3290      4.4237      4.5509      4.7127      4.9124      5.1550    
  5.4465      5.7934      6.2004      6.6683      7.1914      7.7561      8.3393      8.9097      9.4306      9.8639    
  10.175      10.337      10.337      10.175      9.8639      9.4306      8.9097      8.3393      7.7561      7.1914    
  5.8980      5.6312      5.4014      5.2071      5.0452      4.9124      4.8054      4.7215      4.6585      4.6147    
  4.5890      4.5805      4.5890      4.6147      4.6585      4.7215      4.8054      4.9124      5.0452      5.2070    
  5.4014      5.6312      5.8980      6.2004      6.5327      6.8840      7.2381      7.5743      7.8693      8.1002    
  8.2474      8.2981      8.2474      8.1002      7.8693      7.5743      7.2381      6.8840      6.5327      6.2004    
  5.4904      5.3730      5.2790      5.2071      5.1550      5.1200      5.0989      5.0883      5.0844      5.0840    
  5.0846      5.0846      5.0840      5.0844      5.0883      5.0989      5.1200      5.1550      5.2070      5.2790    
  5.3730      5.4904      5.6312      5.7934      5.9725      6.1608      6.3478      6.5209      6.6665      6.7719    
  6.8273      6.8273      6.7719      6.6665      6.5209      6.3478      6.1608      5.9725      5.7934      5.6312    
  5.3633      5.3730      5.4014      5.4465      5.5051      5.5722      5.6416      5.7063      5.7590      5.7935    
  5.8054      5.7935      5.7590      5.7063      5.6416      5.5722      5.5051      5.4465      5.4014      5.3730    
  5.3633      5.3730      5.4014      5.4465      5.5051      5.5722      5.6416      5.7063      5.7590      5.7935    
  5.8054      5.7935      5.7590      5.7063      5.6416      5.5722      5.5051      5.4465      5.4014      5.3730    
  5.4904      5.6312      5.7934      5.9725      6.1608      6.3478      6.5209      6.6665      6.7719      6.8273    
  6.8273      6.7719      6.6665      6.5209      6.3478      6.1608      5.9725      5.7934      5.6312      5.4904    
  5.3730      5.2790      5.2070      5.1550      5.1200      5.0989      5.0883      5.0844      5.0840      5.0846    
  5.0846      5.0840      5.0844      5.0883      5.0989      5.1200      5.1550      5.2071      5.2790      5.3730    
  5.8980      6.2004      6.5327      6.8840      7.2381      7.5743      7.8693      8.1002      8.2474      8.2981    
  8.2474      8.1002      7.8693      7.5743      7.2381      6.8840      6.5327      6.2004      5.8980      5.6312    
  5.4014      5.2070      5.0452      4.9124      4.8054      4.7215      4.6585      4.6147      4.5890      4.5805    
  4.5890      4.6147      4.6585      4.7215      4.8054      4.9124      5.0452      5.2071      5.4014      5.6312    
  6.6682      7.1914      7.7561      8.3393      8.9097      9.4306      9.8639      10.175      10.337      10.337    
  10.175      9.8639      9.4306      8.9097      8.3393      7.7561      7.1914      6.6683      6.2004      5.7934    
  5.4465      5.1550      4.9124      4.7127      4.5509      4.4237      4.3290      4.2662      4.2348      4.2348    
  4.2662      4.3290      4.4237      4.5509      4.7127      4.9124      5.1550      5.4465      5.7934      6.2004    
  7.9457      8.7801      9.6647      10.556      11.399      12.135      12.708      13.073      13.198      13.073    
  12.708      12.135      11.399      10.556      9.6648      8.7802      7.9458      7.1914      6.5327      5.9725    
  5.5051      5.1200      4.8054      4.5509      4.3486      4.1937      4.0837      4.0178      3.9958      4.0178    
  4.0837      4.1937      4.3486      4.5509      4.8054      5.1200      5.5051      5.9725      6.5327      7.1914    
  9.9417      11.205      12.512      13.788      14.961      15.952      16.674      17.055      17.055      16.674    
  15.952      14.961      13.788      12.512      11.205      9.9417      8.7802      7.7561      6.8840      6.1608    
  5.5722      5.0989      4.7215      4.4237      4.1937      4.0247      3.9129      3.8572      3.8572      3.9129    
  4.0247      4.1937      4.4237      4.7215      5.0989      5.5722      6.1608      6.8840      7.7561      8.7801    
  12.920      14.747      16.633      18.484      20.158      21.500      22.369      22.670      22.369      21.500    
  20.158      18.484      16.633      14.747      12.920      11.205      9.6648      8.3393      7.2381      6.3478    
  5.6416      5.0883      4.6585      4.3290      4.0837      3.9129      3.8117      3.7781      3.8117      3.9129    
  4.0837      4.3290      4.6585      5.0883      5.6416      6.3478      7.2381      8.3393      9.6647      11.205    
  17.258      19.995      22.810      25.485      27.774      29.449      30.333      30.333      29.449      27.774    
  25.485      22.810      19.995      17.258      14.747      12.512      10.556      8.9097      7.5743      6.5209    
  5.7063      5.0844      4.6147      4.2662      4.0178      3.8572      3.7781      3.7781      3.8572      4.0178    
  4.2662      4.6147      5.0844      5.7063      6.5209      7.5743      8.9097      10.556      12.512      14.747    
  23.805      27.861      31.856      35.442      38.282      40.103      40.730      40.103      38.282      35.442    
  31.856      27.861      23.805      19.995      16.633      13.788      11.399      9.4306      7.8693      6.6665    
  5.7590      5.0840      4.5890      4.2348      3.9958      3.8572      3.8117      3.8572      3.9958      4.2348    
  4.5890      5.0840      5.7590      6.6665      7.8693      9.4306      11.399      13.788      16.633      19.995    
  33.378      38.962      44.151      48.491      51.606      53.231      53.231      51.606      48.491      44.151    
  38.962      33.378      27.861      22.810      18.484      14.961      12.135      9.8639      8.1002      6.7719    
  5.7935      5.0846      4.5805      4.2348      4.0178      3.9129      3.9129      4.0178      4.2348      4.5805    
  5.0846      5.7935      6.7719      8.1002      9.8639      12.135      14.961      18.484      22.810      27.861    
  46.308      53.309      59.395      64.084      67.032      68.036      67.032      64.084      59.395      53.309    
  46.308      38.962      31.856      25.485      20.158      15.952      12.708      10.175      8.2474      6.8273    
  5.8054      5.0846      4.5890      4.2662      4.0837      4.0247      4.0837      4.2662      4.5890      5.0846    
  5.8054      6.8273      8.2474      10.175      12.708      15.952      20.158      25.485      31.856      38.962    
  62.207      70.147      76.553      81.018      83.304      83.304      81.018      76.553      70.147      62.207    
  53.309      44.151      35.442      27.774      21.500      16.674      13.073      10.337      8.2981      6.8273    
  5.7935      5.0840      4.6147      4.3290      4.1937      4.1937      4.3290      4.6147      5.0840      5.7935    
  6.8273      8.2981      10.337      13.073      16.674      21.500      27.774      35.442      44.151      53.309    
  79.917      88.028      94.032      97.694      98.922      97.694      94.032      88.028      79.917      70.147    
  59.395      48.491      38.282      29.449      22.369      17.055      13.198      10.337      8.2474      6.7719    
  5.7590      5.0844      4.6585      4.4237      4.3486      4.4237      4.6585      5.0844      5.7590      6.7719    
  8.2474      10.337      13.198      17.055      22.369      29.449      38.282      48.491      59.395      70.147    
  97.717      105.13      110.07      112.53      112.53      110.07      105.13      97.717      88.028      76.553    
  64.084      51.606      40.103      30.333      22.670      17.055      13.073      10.175      8.1002      6.6665    
  5.7063      5.0883      4.7215      4.5509      4.5509      4.7215      5.0883      5.7063      6.6665      8.1002    
  10.175      13.073      17.055      22.670      30.333      40.103      51.606      64.084      76.553      88.028    
  113.76      119.76      123.23      124.36      123.23      119.76      113.76      105.13      94.032      81.018    
  67.032      53.231      40.730      30.333      22.369      16.674      12.708      9.8639      7.8693      6.5209    
  5.6416      5.0989      4.8054      4.7127      4.8054      5.0989      5.6416      6.5209      7.8693      9.8639    
  12.708      16.674      22.369      30.333      40.730      53.231      67.032      81.018      94.032      105.13    
  126.58      130.78      132.74      132.74      130.78      126.58      119.76      110.07      97.694      83.304    
  68.036      53.231      40.103      29.449      21.500      15.952      12.135      9.4306      7.5743      6.3478    
  5.5722      5.1200      4.9124      4.9124      5.1200      5.5722      6.3478      7.5743      9.4306      12.135    
  15.952      21.500      29.449      40.103      53.231      68.036      83.304      97.694      110.07      119.76    
  135.48      137.93      138.67      137.93      135.48      130.78      123.23      112.53      98.922      83.304    
  67.032      51.606      38.282      27.774      20.158      14.961      11.399      8.9097      7.2381      6.1608    
  5.5051      5.1550      5.0452      5.1550      5.5051      6.1608      7.2381      8.9097      11.399      14.961    
  20.158      27.774      38.282      51.606      67.032      83.304      98.922      112.53      123.23      130.78    
  140.67      141.77      141.77      140.67      137.93      132.74      124.36      112.53      97.694      81.018    
  64.084      48.491      35.442      25.485      18.484      13.788      10.556      8.3393      6.8840      5.9725    
  5.4465      5.2071      5.2071      5.4465      5.9725      6.8840      8.3393      10.556      13.788      18.484    
  25.485      35.442      48.491      64.084      81.018      97.694      112.53      124.36      132.74      137.93    
  143.05      143.36      143.05      141.77      138.67      132.74      123.23      110.07      94.032      76.553    
  59.395      44.151      31.856      22.810      16.633      12.512      9.6647      7.7561      6.5327      5.7934    
  5.4014      5.2790      5.4014      5.7934      6.5327      7.7561      9.6647      12.512      16.633      22.810    
  31.856      44.151      59.395      76.553      94.032      110.07      123.23      132.74      138.67      141.77    
  143.81      143.81      143.36      141.77      137.93      130.78      119.76      105.13      88.028      70.147    
  53.309      38.962      27.861      19.995      14.747      11.205      8.7801      7.1914      6.2004      5.6312    
  5.3730      5.3730      5.6312      6.2004      7.1914      8.7801      11.205      14.747      19.995      27.861    
  38.962      53.309      70.147      88.028      105.13      119.76      130.78      137.93      141.77      143.36    
  143.81      143.36      141.77      137.93      130.78      119.76      105.13      88.028      70.147      53.309    
  38.962      27.861      19.995      14.747      11.205      8.7801      7.1914      6.2004      5.6312      5.3730    
  5.3730      5.6312      6.2004      7.1914      8.7801      11.205      14.747      19.995      27.861      38.962    
  53.309      70.147      88.028      105.13      119.76      130.78      137.93      141.77      143.36      143.81    
  143.36      142.19      139.26      133.49      124.12      111.05      95.019      77.467      60.173      44.759    
  32.293      23.099      16.817      12.635      9.7501      7.8164      6.5774      5.8292      5.4327      5.3090    
  5.4327      5.8293      6.5774      7.8164      9.7501      12.635      16.817      23.099      32.293      44.759    
  60.173      77.467      95.019      111.05      124.12      133.49      139.26      142.19      143.36      143.64    
  141.77      139.26      134.33      126.20      114.52      99.720      82.926      65.747      49.828      36.432    
  26.161      18.919      14.069      10.750      8.4752      6.9821      6.0481      5.5100      5.2653      5.2653    
  5.5100      6.0482      6.9821      8.4752      10.750      14.069      18.919      26.161      36.432      49.828    
  65.747      82.926      99.720      114.52      126.20      134.33      139.26      141.77      142.75      142.75    
  137.93      133.49      126.20      115.66      102.07      86.273      69.651      53.753      39.909      28.914    
  20.905      15.438      11.725      9.1361      7.3985      6.2805      5.6016      5.2399      5.1267      5.2399    
  5.6016      6.2805      7.3985      9.1361      11.725      15.438      20.905      28.914      39.909      53.753    
  69.651      86.273      102.07      115.66      126.20      133.49      137.93      140.19      140.86      140.19    
  130.78      124.12      114.52      102.07      87.399      71.655      56.228      42.413      31.100      22.602    
  16.659      12.609      9.7599      7.8045      6.5152      5.7025      5.2302      5.0140      5.0140      5.2302    
  5.7025      6.5152      7.8045      9.7598      12.609      16.659      22.602      31.100      42.413      56.228    
  71.655      87.399      102.07      114.52      124.12      130.78      134.81      136.66      136.66      134.81    
  119.76      111.05      99.720      86.273      71.655      57.072      43.721      32.505      23.842      17.628    
  13.341      10.304      8.1746      6.7385      5.8058      5.2328      4.9242      4.8269      4.9242      5.2328    
  5.8058      6.7385      8.1745      10.304      13.341      17.628      23.842      32.505      43.721      57.072    
  71.655      86.273      99.720      111.05      119.76      125.73      129.16      130.27      129.16      125.73    
  105.13      95.019      82.926      69.651      56.228      43.721      32.989      24.498      18.254      13.865    
  10.727      8.4820      6.9347      5.9034      5.2436      4.8543      4.6741      4.6741      4.8543      5.2436    
  5.9034      6.9347      8.4820      10.727      13.865      18.254      24.498      32.989      43.721      56.228    
  69.651      82.926      95.019      105.13      112.80      117.88      120.39      120.39      117.88      112.80    
  88.028      77.467      65.747      53.753      42.413      32.505      24.498      18.470      14.139      10.996    
  8.7025      7.0885      5.9867      5.2583      4.8020      4.5519      4.4723      4.5519      4.8020      5.2583    
  5.9867      7.0885      8.7025      10.996      14.139      18.470      24.498      32.505      42.413      53.753    
  65.747      77.467      88.028      96.733      103.14      107.03      108.34      107.03      103.14      96.733    
  70.147      60.173      49.828      39.909      31.100      23.842      18.254      14.139      11.088      8.8178    
  7.1866      6.0476      5.2727      4.7649      4.4583      4.3140      4.3140      4.4583      4.7649      5.2727    
  6.0476      7.1866      8.8178      11.088      14.139      18.254      23.842      31.100      39.909      49.828    
  60.173      70.147      78.992      86.092      91.023      93.542      93.542      91.023      86.092      78.992    
  53.309      44.759      36.432      28.914      22.602      17.628      13.865      10.996      8.8178      7.2204    
  6.0798      5.2831      4.7413      4.3920      4.1961      4.1330      4.1961      4.3920      4.7413      5.2831    
  6.0798      7.2204      8.8178      10.996      13.865      17.628      22.602      28.914      36.432      44.759    
  53.309      61.412      68.421      73.803      77.179      78.328      77.179      73.803      68.421      61.412    
  38.962      32.293      26.161      20.905      16.659      13.341      10.727      8.7025      7.1866      6.0798    
  5.2868      4.7298      4.3523      4.1177      4.0050      4.0050      4.1177      4.3523      4.7298      5.2868    
  6.0798      7.1866      8.7025      10.727      13.341      16.659      20.905      26.161      32.293      38.962    
  45.681      51.896      57.079      60.789      62.722      62.722      60.789      57.079      51.896      45.681    
  27.861      23.099      18.919      15.438      12.609      10.304      8.4820      7.0885      6.0476      5.2831    
  4.7298      4.3391      4.0785      3.9285      3.8794      3.9285      4.0785      4.3391      4.7298      5.2831    
  6.0476      7.0885      8.4820      10.304      12.609      15.438      18.919      23.099      27.861      32.925    
  37.902      42.356      45.877      48.132      48.908      48.132      45.877      42.356      37.902      32.925    
  19.995      16.817      14.069      11.725      9.7599      8.1746      6.9347      5.9867      5.2727      4.7413    
  4.3523      4.0785      3.9030      3.8170      3.8170      3.9030      4.0785      4.3523      4.7413      5.2727    
  5.9867      6.9347      8.1746      9.7599      11.725      14.069      16.817      19.995      23.503      27.129    
  30.578      33.529      35.685      36.823      36.823      35.685      33.529      30.578      27.129      23.503    
  14.747      12.635      10.750      9.1361      7.8045      6.7385      5.9034      5.2583      4.7649      4.3920    
  4.1177      3.9285      3.8170      3.7801      3.8170      3.9285      4.1177      4.3920      4.7649      5.2583    
  5.9034      6.7385      7.8045      9.1361      10.750      12.635      14.747      17.066      19.523      21.965    
  24.189      25.976      27.135      27.536      27.135      25.976      24.189      21.965      19.523      17.066    
  11.205      9.7501      8.4752      7.3985      6.5152      5.8058      5.2436      4.8020      4.4583      4.1961    
  4.0050      3.8794      3.8170      3.8170      3.8794      4.0050      4.1961      4.4583      4.8020      5.2436    
  5.8058      6.5152      7.3985      8.4752      9.7501      11.205      12.793      14.445      16.097      17.654    
  18.988      19.969      20.490      20.490      19.969      18.988      17.654      16.097      14.445      12.793    
  8.7801      7.8164      6.9821      6.2805      5.7025      5.2328      4.8543      4.5519      4.3140      4.1330    
  4.0050      3.9285      3.9030      3.9285      4.0050      4.1330      4.3140      4.5519      4.8543      5.2328    
  5.7025      6.2805      6.9822      7.8164      8.7802      9.8535      10.997      12.152      13.248      14.209    
  14.967      15.454      15.623      15.454      14.967      14.209      13.248      12.152      10.997      9.8534    
  7.1914      6.5774      6.0481      5.6016      5.2302      4.9242      4.6741      4.4723      4.3140      4.1961    
  4.1177      4.0785      4.0785      4.1177      4.1961      4.3140      4.4723      4.6740      4.9242      5.2302    
  5.6016      6.0482      6.5774      7.1914      7.8835      8.6349      9.4146      10.180      10.880      11.463    
  11.882      12.101      12.101      11.882      11.463      10.880      10.180      9.4146      8.6349      7.8835    
  6.2004      5.8292      5.5100      5.2399      5.0140      4.8269      4.6741      4.5519      4.4583      4.3920    
  4.3523      4.3391      4.3523      4.3920      4.4583      4.5519      4.6740      4.8269      5.0140      5.2399    
  5.5100      5.8292      6.2004      6.6221      7.0868      7.5793      8.0768      8.5497      8.9651      9.2902    
  9.4977      9.5691      9.4977      9.2902      8.9650      8.5497      8.0768      7.5793      7.0868      6.6221    
  5.6312      5.4327      5.2653      5.1267      5.0140      4.9242      4.8543      4.8020      4.7649      4.7413    
  4.7298      4.7298      4.7413      4.7649      4.8020      4.8543      4.9242      5.0140      5.1267      5.2653    
  5.4327      5.6312      5.8611      6.1200      6.4013      6.6940      6.9826      7.2482      7.4707      7.6313    
  7.7156      7.7156      7.6313      7.4707      7.2482      6.9826      6.6940      6.4013      6.1200      5.8611    
  5.3730      5.3090      5.2653      5.2399      5.2302      5.2328      5.2436      5.2583      5.2727      5.2831    
  5.2868      5.2831      5.2727      5.2583      5.2436      5.2328      5.2302      5.2399      5.2653      5.3090    
  5.3730      5.4582      5.5640      5.6881      5.8256      5.9694      6.1098      6.2356      6.3357      6.4002    
  6.4224      6.4002      6.3357      6.2356      6.1098      5.9694      5.8256      5.6881      5.5640      5.4582    
  5.3730      5.4327      5.5100      5.6016      5.7025      5.8058      5.9034      5.9867      6.0476      6.0798    
  6.0798      6.0476      5.9867      5.9034      5.8058      5.7025      5.6016      5.5100      5.4327      5.3730    
  5.3325      5.3115      5.3090      5.3230      5.3502      5.3861      5.4252      5.4616      5.4897      5.5050    
  5.5050      5.4897      5.4616      5.4252      5.3861      5.3502      5.3230      5.3090      5.3115      5.3325    
  5.6312      5.8293      6.0482      6.2805      6.5152      6.7385      6.9347      7.0885      7.1866      7.2204    