   1   1   1   0
  0.1644630E+02  0.2854485E-09  0.2854485E-09  0.2854485E-09  0.5000000E-15
  1.000000000000000E-004
  CAR 
 Pt-fcc                                  
     65.78128968    -47.32828008  301     10.43739268      1.00000000
    -47.328  0.0000E+00  0.0000E+00
    -46.951  0.0000E+00  0.0000E+00
    -46.574  0.0000E+00  0.0000E+00
    -46.197  0.0000E+00  0.0000E+00
    -45.820  0.0000E+00  0.0000E+00
    -45.443  0.0000E+00  0.0000E+00
    -45.066  0.0000E+00  0.0000E+00
    -44.689  0.0000E+00  0.0000E+00
    -44.312  0.0000E+00  0.0000E+00
    -43.935  0.0000E+00  0.0000E+00
    -43.558  0.0000E+00  0.0000E+00
    -43.181  0.0000E+00  0.0000E+00
    -42.804  0.0000E+00  0.0000E+00
    -42.427  0.3136E-14  0.1182E-14
    -42.050  0.4909E-01  0.1851E-01
    -41.673  0.1086E+00  0.6000E-01
    -41.296  0.0000E+00  0.6000E-01
    -40.919  0.0000E+00  0.6000E-01
    -40.542  0.0000E+00  0.6000E-01
    -40.165  0.0000E+00  0.6000E-01
    -39.788  0.0000E+00  0.6000E-01
    -39.411  0.0000E+00  0.6000E-01
    -39.034  0.0000E+00  0.6000E-01
    -38.657  0.0000E+00  0.6000E-01
    -38.280  0.0000E+00  0.6000E-01
    -37.902  0.0000E+00  0.6000E-01
    -37.525  0.0000E+00  0.6000E-01
    -37.148  0.0000E+00  0.6000E-01
    -36.771  0.0000E+00  0.6000E-01
    -36.394  0.0000E+00  0.6000E-01
    -36.017  0.0000E+00  0.6000E-01
    -35.640  0.0000E+00  0.6000E-01
    -35.263  0.0000E+00  0.6000E-01
    -34.886  0.0000E+00  0.6000E-01
    -34.509  0.0000E+00  0.6000E-01
    -34.132  0.0000E+00  0.6000E-01
    -33.755  0.0000E+00  0.6000E-01
    -33.378  0.0000E+00  0.6000E-01
    -33.001  0.0000E+00  0.6000E-01
    -32.624  0.0000E+00  0.6000E-01
    -32.247  0.0000E+00  0.6000E-01
    -31.870  0.0000E+00  0.6000E-01
    -31.493  0.0000E+00  0.6000E-01
    -31.116  0.0000E+00  0.6000E-01
    -30.739  0.0000E+00  0.6000E-01
    -30.362  0.0000E+00  0.6000E-01
    -29.985  0.0000E+00  0.6000E-01
    -29.608  0.0000E+00  0.6000E-01
    -29.231  0.0000E+00  0.6000E-01
    -28.854  0.0000E+00  0.6000E-01
    -28.477  0.0000E+00  0.6000E-01
    -28.100  0.0000E+00  0.6000E-01
    -27.723  0.0000E+00  0.6000E-01
    -27.346  0.0000E+00  0.6000E-01
    -26.969  0.0000E+00  0.6000E-01
    -26.592  0.0000E+00  0.6000E-01
    -26.214  0.0000E+00  0.6000E-01
    -25.837  0.0000E+00  0.6000E-01
    -25.460  0.0000E+00  0.6000E-01
    -25.083  0.0000E+00  0.6000E-01
    -24.706  0.0000E+00  0.6000E-01
    -24.329  0.0000E+00  0.6000E-01
    -23.952  0.0000E+00  0.6000E-01
    -23.575  0.0000E+00  0.6000E-01
    -23.198  0.0000E+00  0.6000E-01
    -22.821  0.0000E+00  0.6000E-01
    -22.444  0.0000E+00  0.6000E-01
    -22.067  0.0000E+00  0.6000E-01
    -21.690  0.0000E+00  0.6000E-01
    -21.313  0.0000E+00  0.6000E-01
    -20.936  0.0000E+00  0.6000E-01
    -20.559  0.0000E+00  0.6000E-01
    -20.182  0.0000E+00  0.6000E-01
    -19.805  0.0000E+00  0.6000E-01
    -19.428  0.0000E+00  0.6000E-01
    -19.051  0.0000E+00  0.6000E-01
    -18.674  0.0000E+00  0.6000E-01
    -18.297  0.0000E+00  0.6000E-01
    -17.920  0.0000E+00  0.6000E-01
    -17.543  0.0000E+00  0.6000E-01
    -17.166  0.0000E+00  0.6000E-01
    -16.789  0.0000E+00  0.6000E-01
    -16.412  0.0000E+00  0.6000E-01
    -16.035  0.0000E+00  0.6000E-01
    -15.658  0.0000E+00  0.6000E-01
    -15.281  0.0000E+00  0.6000E-01
    -14.904  0.0000E+00  0.6000E-01
    -14.527  0.0000E+00  0.6000E-01
    -14.149  0.0000E+00  0.6000E-01
    -13.772  0.0000E+00  0.6000E-01
    -13.395  0.0000E+00  0.6000E-01
    -13.018  0.0000E+00  0.6000E-01
    -12.641  0.0000E+00  0.6000E-01
    -12.264  0.0000E+00  0.6000E-01
    -11.887  0.0000E+00  0.6000E-01
    -11.510  0.0000E+00  0.6000E-01
    -11.133  0.0000E+00  0.6000E-01
    -10.756  0.0000E+00  0.6000E-01
    -10.379  0.0000E+00  0.6000E-01
    -10.002  0.0000E+00  0.6000E-01
     -9.625  0.0000E+00  0.6000E-01
     -9.248  0.0000E+00  0.6000E-01
     -8.871  0.0000E+00  0.6000E-01
     -8.494  0.0000E+00  0.6000E-01
     -8.117  0.0000E+00  0.6000E-01
     -7.740  0.0000E+00  0.6000E-01
     -7.363  0.0000E+00  0.6000E-01
     -6.986  0.0000E+00  0.6000E-01
     -6.609  0.0000E+00  0.6000E-01
     -6.232  0.0000E+00  0.6000E-01
     -5.855  0.0000E+00  0.6000E-01
     -5.478  0.0000E+00  0.6000E-01
     -5.101  0.0000E+00  0.6000E-01
     -4.724  0.0000E+00  0.6000E-01
     -4.347  0.0000E+00  0.6000E-01
     -3.970  0.0000E+00  0.6000E-01
     -3.593  0.0000E+00  0.6000E-01
     -3.216  0.0000E+00  0.6000E-01
     -2.839  0.0000E+00  0.6000E-01
     -2.461  0.0000E+00  0.6000E-01
     -2.084  0.0000E+00  0.6000E-01
     -1.707  0.0000E+00  0.6000E-01
     -1.330  0.0000E+00  0.6000E-01
     -0.953  0.0000E+00  0.6000E-01
     -0.576  0.0000E+00  0.6000E-01
     -0.199  0.0000E+00  0.6000E-01
      0.178  0.0000E+00  0.6000E-01
      0.555  0.0000E+00  0.6000E-01
      0.932  0.9364E-18  0.6000E-01
      1.309  0.1060E-03  0.6004E-01
      1.686  0.4802E-03  0.6022E-01
      2.063  0.5875E-03  0.6044E-01
      2.440  0.9469E-03  0.6080E-01
      2.817  0.1446E-02  0.6135E-01
      3.194  0.9269E-03  0.6175E-01
      3.571  0.1746E-02  0.6246E-01
      3.948  0.3110E-02  0.6369E-01
      4.325  0.5696E-02  0.6585E-01
      4.702  0.9957E-02  0.6969E-01
      5.079  0.1453E-01  0.7521E-01
      5.456  0.1467E-01  0.8076E-01
      5.833  0.1144E-01  0.8517E-01
      6.210  0.1319E-01  0.9018E-01
      6.587  0.1484E-01  0.9581E-01
      6.964  0.1818E-01  0.1027E+00
      7.341  0.2020E-01  0.1104E+00
      7.718  0.2301E-01  0.1192E+00
      8.095  0.1303E-01  0.1242E+00
      8.472  0.1387E-01  0.1294E+00
      8.849  0.1817E-01  0.1363E+00
      9.227  0.1515E-01  0.1421E+00
      9.604  0.9728E-02  0.1460E+00
      9.981  0.1325E-01  0.1510E+00
     10.358  0.1952E-01  0.1584E+00
     10.735  0.1736E-01  0.1651E+00
     11.112  0.3462E-02  0.1664E+00
     11.489  0.4843E-02  0.1683E+00
     11.866  0.1680E-02  0.1689E+00
     12.243  0.3171E-02  0.1701E+00
     12.620  0.2624E-02  0.1711E+00
     12.997  0.3553E-02  0.1725E+00
     13.374  0.1962E-02  0.1733E+00
     13.751  0.3739E-02  0.1747E+00
     14.128  0.1887E-02  0.1754E+00
     14.505  0.2188E-02  0.1763E+00
     14.882  0.2840E-02  0.1774E+00
     15.259  0.1983E-02  0.1782E+00
     15.636  0.3863E-02  0.1797E+00
     16.013  0.3219E-02  0.1809E+00
     16.390  0.3668E-02  0.1823E+00
     16.767  0.2143E-02  0.1832E+00
     17.144  0.3260E-02  0.1844E+00
     17.521  0.3472E-02  0.1857E+00
     17.898  0.4377E-02  0.1874E+00
     18.275  0.2316E-02  0.1882E+00
     18.652  0.2859E-02  0.1893E+00
     19.029  0.3696E-02  0.1907E+00
     19.406  0.1829E-02  0.1914E+00
     19.783  0.2682E-02  0.1924E+00
     20.160  0.5860E-02  0.1946E+00
     20.537  0.2727E-02  0.1957E+00
     20.914  0.2764E-02  0.1967E+00
     21.292  0.5129E-02  0.1987E+00
     21.669  0.2462E-02  0.1996E+00
     22.046  0.6167E-02  0.2019E+00
     22.423  0.4545E-02  0.2037E+00
     22.800  0.4258E-02  0.2053E+00
     23.177  0.4292E-02  0.2069E+00
     23.554  0.5927E-02  0.2091E+00
     23.931  0.5748E-02  0.2113E+00
     24.308  0.3785E-02  0.2128E+00
     24.685  0.6886E-02  0.2154E+00
     25.062  0.3878E-02  0.2169E+00
     25.439  0.9933E-02  0.2206E+00
     25.816  0.7054E-02  0.2233E+00
     26.193  0.6039E-02  0.2257E+00
     26.570  0.4455E-02  0.2273E+00
     26.947  0.9526E-02  0.2309E+00
     27.324  0.5860E-02  0.2332E+00
     27.701  0.3960E-02  0.2347E+00
     28.078  0.2700E-02  0.2357E+00
     28.455  0.4898E-02  0.2376E+00
     28.832  0.6261E-02  0.2400E+00
     29.209  0.7197E-02  0.2427E+00
     29.586  0.7148E-02  0.2455E+00
     29.963  0.8839E-02  0.2488E+00
     30.340  0.6137E-02  0.2512E+00
     30.717  0.7995E-02  0.2542E+00
     31.094  0.4406E-02  0.2558E+00
     31.471  0.6416E-02  0.2583E+00
     31.848  0.3370E-02  0.2596E+00
     32.225  0.3092E-02  0.2608E+00
     32.602  0.4480E-02  0.2625E+00
     32.980  0.5195E-02  0.2644E+00
     33.357  0.4254E-02  0.2660E+00
     33.734  0.3711E-02  0.2674E+00
     34.111  0.5420E-02  0.2695E+00
     34.488  0.6138E-02  0.2719E+00
     34.865  0.6498E-02  0.2744E+00
     35.242  0.3106E-02  0.2756E+00
     35.619  0.4605E-02  0.2773E+00
     35.996  0.7209E-02  0.2801E+00
     36.373  0.9662E-02  0.2838E+00
     36.750  0.6488E-02  0.2863E+00
     37.127  0.1014E-01  0.2902E+00
     37.504  0.1626E-01  0.2964E+00
     37.881  0.8542E-02  0.2997E+00
     38.258  0.1139E-01  0.3040E+00
     38.635  0.7618E-02  0.3069E+00
     39.012  0.6305E-02  0.3093E+00
     39.389  0.5856E-02  0.3115E+00
     39.766  0.5277E-02  0.3136E+00
     40.143  0.1146E-01  0.3179E+00
     40.520  0.1092E-01  0.3221E+00
     40.897  0.5282E-02  0.3242E+00
     41.274  0.7516E-02  0.3271E+00
     41.651  0.5111E-02  0.3290E+00
     42.028  0.9439E-02  0.3326E+00
     42.405  0.6214E-02  0.3350E+00
     42.782  0.4326E-02  0.3367E+00
     43.159  0.5504E-02  0.3389E+00
     43.536  0.6306E-02  0.3413E+00
     43.913  0.7295E-02  0.3441E+00
     44.290  0.8863E-02  0.3474E+00
     44.668  0.7968E-02  0.3505E+00
     45.045  0.1156E-01  0.3549E+00
     45.422  0.1404E-01  0.3602E+00
     45.799  0.9133E-02  0.3637E+00
     46.176  0.1055E-01  0.3678E+00
     46.553  0.1114E-01  0.3721E+00
     46.930  0.1086E-01  0.3762E+00
     47.307  0.7635E-02  0.3791E+00
     47.684  0.5478E-02  0.3812E+00
     48.061  0.9608E-02  0.3848E+00
     48.438  0.7527E-02  0.3876E+00
     48.815  0.6031E-02  0.3900E+00
     49.192  0.7949E-02  0.3930E+00
     49.569  0.1015E-01  0.3969E+00
     49.946  0.7863E-02  0.4000E+00
     50.323  0.8157E-02  0.4031E+00
     50.700  0.8836E-02  0.4065E+00
     51.077  0.8942E-02  0.4100E+00
     51.454  0.5445E-01  0.4306E+00
     51.831  0.6879E-02  0.4366E+00
     52.208  0.8216E-02  0.4397E+00
     52.585  0.9079E-02  0.4432E+00
     52.962  0.7567E-02  0.4461E+00
     53.339  0.9876E-02  0.4500E+00
     53.716  0.7930E-02  0.4530E+00
     54.093  0.8012E-02  0.4560E+00
     54.470  0.9897E-02  0.4598E+00
     54.847  0.5232E-02  0.4618E+00
     55.224  0.9063E-02  0.4653E+00
     55.601  0.7774E-02  0.4682E+00
     55.978  0.7854E-02  0.4712E+00
     56.355  0.5669E-02  0.4733E+00
     56.733  0.4090E-02  0.4749E+00
     57.110  0.3227E-02  0.4761E+00
     57.487  0.2126E-02  0.4769E+00
     57.864  0.3008E-02  0.4780E+00
     58.241  0.1640E-02  0.4787E+00
     58.618  0.1327E-02  0.4792E+00
     58.995  0.1273E-02  0.4796E+00
     59.372  0.0000E+00  0.4796E+00
     59.749  0.1093E-03  0.4797E+00
     60.126  0.5272E-03  0.4799E+00
     60.503  0.1677E-07  0.4799E+00
     60.880  0.3183E-03  0.4800E+00
     61.257  0.0000E+00  0.4800E+00
     61.634  0.0000E+00  0.4800E+00
     62.011  0.0000E+00  0.4800E+00
     62.388  0.0000E+00  0.4800E+00
     62.765  0.0000E+00  0.4800E+00
     63.142  0.0000E+00  0.4800E+00
     63.519  0.0000E+00  0.4800E+00
     63.896  0.0000E+00  0.4800E+00
     64.273  0.0000E+00  0.4800E+00
     64.650  0.0000E+00  0.4800E+00
     65.027  0.0000E+00  0.4800E+00
     65.404  0.0000E+00  0.4800E+00
     65.781  0.0000E+00  0.4800E+00
     65.78128968    -47.32828008  301     10.43739268      1.00000000
    -47.328  0.0000E+00  0.0000E+00  0.0000E+00  0.0000E+00  0.0000E+00  0.0000E+00  0.0000E+00  0.0000E+00  0.0000E+00
    -46.951  0.0000E+00  0.0000E+00  0.0000E+00  0.0000E+00  0.0000E+00  0.0000E+00  0.0000E+00  0.0000E+00  0.0000E+00
    -46.574  0.0000E+00  0.0000E+00  0.0000E+00  0.0000E+00  0.0000E+00  0.0000E+00  0.0000E+00  0.0000E+00  0.0000E+00
    -46.197  0.0000E+00  0.0000E+00  0.0000E+00  0.0000E+00  0.0000E+00  0.0000E+00  0.0000E+00  0.0000E+00  0.0000E+00
    -45.820  0.0000E+00  0.0000E+00  0.0000E+00  0.0000E+00  0.0000E+00  0.0000E+00  0.0000E+00  0.0000E+00  0.0000E+00
    -45.443  0.0000E+00  0.0000E+00  0.0000E+00  0.0000E+00  0.0000E+00  0.0000E+00  0.0000E+00  0.0000E+00  0.0000E+00
    -45.066  0.0000E+00  0.0000E+00  0.0000E+00  0.0000E+00  0.0000E+00  0.0000E+00  0.0000E+00  0.0000E+00  0.0000E+00
    -44.689  0.0000E+00  0.0000E+00  0.0000E+00  0.0000E+00  0.0000E+00  0.0000E+00  0.0000E+00  0.0000E+00  0.0000E+00
    -44.312  0.0000E+00  0.0000E+00  0.0000E+00  0.0000E+00  0.0000E+00  0.0000E+00  0.0000E+00  0.0000E+00  0.0000E+00
    -43.935  0.0000E+00  0.0000E+00  0.0000E+00  0.0000E+00  0.0000E+00  0.0000E+00  0.0000E+00  0.0000E+00  0.0000E+00
    -43.558  0.0000E+00  0.0000E+00  0.0000E+00  0.0000E+00  0.0000E+00  0.0000E+00  0.0000E+00  0.0000E+00  0.0000E+00
    -43.181  0.0000E+00  0.0000E+00  0.0000E+00  0.0000E+00  0.0000E+00  0.0000E+00  0.0000E+00  0.0000E+00  0.0000E+00
    -42.804  0.0000E+00  0.0000E+00  0.0000E+00  0.0000E+00  0.0000E+00  0.0000E+00  0.0000E+00  0.0000E+00  0.0000E+00
    -42.427  0.5532E-18  0.1028E-12  0.1028E-12  0.1028E-12  0.2823E-18  0.2823E-18  0.2064E-18  0.2823E-18  0.2064E-18
    -42.050  0.8350E-04  0.1614E+01  0.1614E+01  0.1614E+01  0.2577E-04  0.2577E-04  0.1057E-04  0.2577E-04  0.1057E-04
    -41.673  0.6125E-04  0.3591E+01  0.3591E+01  0.3591E+01  0.5203E-04  0.5203E-04  0.3039E-04  0.5203E-04  0.3039E-04
    -41.296  0.0000E+00  0.0000E+00  0.0000E+00  0.0000E+00  0.0000E+00  0.0000E+00  0.0000E+00  0.0000E+00  0.0000E+00
    -40.919  0.0000E+00  0.0000E+00  0.0000E+00  0.0000E+00  0.0000E+00  0.0000E+00  0.0000E+00  0.0000E+00  0.0000E+00
    -40.542  0.0000E+00  0.0000E+00  0.0000E+00  0.0000E+00  0.0000E+00  0.0000E+00  0.0000E+00  0.0000E+00  0.0000E+00
    -40.165  0.0000E+00  0.0000E+00  0.0000E+00  0.0000E+00  0.0000E+00  0.0000E+00  0.0000E+00  0.0000E+00  0.0000E+00
    -39.788  0.0000E+00  0.0000E+00  0.0000E+00  0.0000E+00  0.0000E+00  0.0000E+00  0.0000E+00  0.0000E+00  0.0000E+00
    -39.411  0.0000E+00  0.0000E+00  0.0000E+00  0.0000E+00  0.0000E+00  0.0000E+00  0.0000E+00  0.0000E+00  0.0000E+00
    -39.034  0.0000E+00  0.0000E+00  0.0000E+00  0.0000E+00  0.0000E+00  0.0000E+00  0.0000E+00  0.0000E+00  0.0000E+00
    -38.657  0.0000E+00  0.0000E+00  0.0000E+00  0.0000E+00  0.0000E+00  0.0000E+00  0.0000E+00  0.0000E+00  0.0000E+00
    -38.280  0.0000E+00  0.0000E+00  0.0000E+00  0.0000E+00  0.0000E+00  0.0000E+00  0.0000E+00  0.0000E+00  0.0000E+00
    -37.902  0.0000E+00  0.0000E+00  0.0000E+00  0.0000E+00  0.0000E+00  0.0000E+00  0.0000E+00  0.0000E+00  0.0000E+00
    -37.525  0.0000E+00  0.0000E+00  0.0000E+00  0.0000E+00  0.0000E+00  0.0000E+00  0.0000E+00  0.0000E+00  0.0000E+00
    -37.148  0.0000E+00  0.0000E+00  0.0000E+00  0.0000E+00  0.0000E+00  0.0000E+00  0.0000E+00  0.0000E+00  0.0000E+00
    -36.771  0.0000E+00  0.0000E+00  0.0000E+00  0.0000E+00  0.0000E+00  0.0000E+00  0.0000E+00  0.0000E+00  0.0000E+00
    -36.394  0.0000E+00  0.0000E+00  0.0000E+00  0.0000E+00  0.0000E+00  0.0000E+00  0.0000E+00  0.0000E+00  0.0000E+00
    -36.017  0.0000E+00  0.0000E+00  0.0000E+00  0.0000E+00  0.0000E+00  0.0000E+00  0.0000E+00  0.0000E+00  0.0000E+00
    -35.640  0.0000E+00  0.0000E+00  0.0000E+00  0.0000E+00  0.0000E+00  0.0000E+00  0.0000E+00  0.0000E+00  0.0000E+00
    -35.263  0.0000E+00  0.0000E+00  0.0000E+00  0.0000E+00  0.0000E+00  0.0000E+00  0.0000E+00  0.0000E+00  0.0000E+00
    -34.886  0.0000E+00  0.0000E+00  0.0000E+00  0.0000E+00  0.0000E+00  0.0000E+00  0.0000E+00  0.0000E+00  0.0000E+00
    -34.509  0.0000E+00  0.0000E+00  0.0000E+00  0.0000E+00  0.0000E+00  0.0000E+00  0.0000E+00  0.0000E+00  0.0000E+00
    -34.132  0.0000E+00  0.0000E+00  0.0000E+00  0.0000E+00  0.0000E+00  0.0000E+00  0.0000E+00  0.0000E+00  0.0000E+00
    -33.755  0.0000E+00  0.0000E+00  0.0000E+00  0.0000E+00  0.0000E+00  0.0000E+00  0.0000E+00  0.0000E+00  0.0000E+00
    -33.378  0.0000E+00  0.0000E+00  0.0000E+00  0.0000E+00  0.0000E+00  0.0000E+00  0.0000E+00  0.0000E+00  0.0000E+00
    -33.001  0.0000E+00  0.0000E+00  0.0000E+00  0.0000E+00  0.0000E+00  0.0000E+00  0.0000E+00  0.0000E+00  0.0000E+00
    -32.624  0.0000E+00  0.0000E+00  0.0000E+00  0.0000E+00  0.0000E+00  0.0000E+00  0.0000E+00  0.0000E+00  0.0000E+00
    -32.247  0.0000E+00  0.0000E+00  0.0000E+00  0.0000E+00  0.0000E+00  0.0000E+00  0.0000E+00  0.0000E+00  0.0000E+00
    -31.870  0.0000E+00  0.0000E+00  0.0000E+00  0.0000E+00  0.0000E+00  0.0000E+00  0.0000E+00  0.0000E+00  0.0000E+00
    -31.493  0.0000E+00  0.0000E+00  0.0000E+00  0.0000E+00  0.0000E+00  0.0000E+00  0.0000E+00  0.0000E+00  0.0000E+00
    -31.116  0.0000E+00  0.0000E+00  0.0000E+00  0.0000E+00  0.0000E+00  0.0000E+00  0.0000E+00  0.0000E+00  0.0000E+00
    -30.739  0.0000E+00  0.0000E+00  0.0000E+00  0.0000E+00  0.0000E+00  0.0000E+00  0.0000E+00  0.0000E+00  0.0000E+00
    -30.362  0.0000E+00  0.0000E+00  0.0000E+00  0.0000E+00  0.0000E+00  0.0000E+00  0.0000E+00  0.0000E+00  0.0000E+00
    -29.985  0.0000E+00  0.0000E+00  0.0000E+00  0.0000E+00  0.0000E+00  0.0000E+00  0.0000E+00  0.0000E+00  0.0000E+00
    -29.608  0.0000E+00  0.0000E+00  0.0000E+00  0.0000E+00  0.0000E+00  0.0000E+00  0.0000E+00  0.0000E+00  0.0000E+00
    -29.231  0.0000E+00  0.0000E+00  0.0000E+00  0.0000E+00  0.0000E+00  0.0000E+00  0.0000E+00  0.0000E+00  0.0000E+00
    -28.854  0.0000E+00  0.0000E+00  0.0000E+00  0.0000E+00  0.0000E+00  0.0000E+00  0.0000E+00  0.0000E+00  0.0000E+00
    -28.477  0.0000E+00  0.0000E+00  0.0000E+00  0.0000E+00  0.0000E+00  0.0000E+00  0.0000E+00  0.0000E+00  0.0000E+00
    -28.100  0.0000E+00  0.0000E+00  0.0000E+00  0.0000E+00  0.0000E+00  0.0000E+00  0.0000E+00  0.0000E+00  0.0000E+00
    -27.723  0.0000E+00  0.0000E+00  0.0000E+00  0.0000E+00  0.0000E+00  0.0000E+00  0.0000E+00  0.0000E+00  0.0000E+00
    -27.346  0.0000E+00  0.0000E+00  0.0000E+00  0.0000E+00  0.0000E+00  0.0000E+00  0.0000E+00  0.0000E+00  0.0000E+00
    -26.969  0.0000E+00  0.0000E+00  0.0000E+00  0.0000E+00  0.0000E+00  0.0000E+00  0.0000E+00  0.0000E+00  0.0000E+00
    -26.592  0.0000E+00  0.0000E+00  0.0000E+00  0.0000E+00  0.0000E+00  0.0000E+00  0.0000E+00  0.0000E+00  0.0000E+00
    -26.214  0.0000E+00  0.0000E+00  0.0000E+00  0.0000E+00  0.0000E+00  0.0000E+00  0.0000E+00  0.0000E+00  0.0000E+00
    -25.837  0.0000E+00  0.0000E+00  0.0000E+00  0.0000E+00  0.0000E+00  0.0000E+00  0.0000E+00  0.0000E+00  0.0000E+00
    -25.460  0.0000E+00  0.0000E+00  0.0000E+00  0.0000E+00  0.0000E+00  0.0000E+00  0.0000E+00  0.0000E+00  0.0000E+00
    -25.083  0.0000E+00  0.0000E+00  0.0000E+00  0.0000E+00  0.0000E+00  0.0000E+00  0.0000E+00  0.0000E+00  0.0000E+00
    -24.706  0.0000E+00  0.0000E+00  0.0000E+00  0.0000E+00  0.0000E+00  0.0000E+00  0.0000E+00  0.0000E+00  0.0000E+00
    -24.329  0.0000E+00  0.0000E+00  0.0000E+00  0.0000E+00  0.0000E+00  0.0000E+00  0.0000E+00  0.0000E+00  0.0000E+00
    -23.952  0.0000E+00  0.0000E+00  0.0000E+00  0.0000E+00  0.0000E+00  0.0000E+00  0.0000E+00  0.0000E+00  0.0000E+00
    -23.575  0.0000E+00  0.0000E+00  0.0000E+00  0.0000E+00  0.0000E+00  0.0000E+00  0.0000E+00  0.0000E+00  0.0000E+00
    -23.198  0.0000E+00  0.0000E+00  0.0000E+00  0.0000E+00  0.0000E+00  0.0000E+00  0.0000E+00  0.0000E+00  0.0000E+00
    -22.821  0.0000E+00  0.0000E+00  0.0000E+00  0.0000E+00  0.0000E+00  0.0000E+00  0.0000E+00  0.0000E+00  0.0000E+00
    -22.444  0.0000E+00  0.0000E+00  0.0000E+00  0.0000E+00  0.0000E+00  0.0000E+00  0.0000E+00  0.0000E+00  0.0000E+00
    -22.067  0.0000E+00  0.0000E+00  0.0000E+00  0.0000E+00  0.0000E+00  0.0000E+00  0.0000E+00  0.0000E+00  0.0000E+00
    -21.690  0.0000E+00  0.0000E+00  0.0000E+00  0.0000E+00  0.0000E+00  0.0000E+00  0.0000E+00  0.0000E+00  0.0000E+00
    -21.313  0.0000E+00  0.0000E+00  0.0000E+00  0.0000E+00  0.0000E+00  0.0000E+00  0.0000E+00  0.0000E+00  0.0000E+00
    -20.936  0.0000E+00  0.0000E+00  0.0000E+00  0.0000E+00  0.0000E+00  0.0000E+00  0.0000E+00  0.0000E+00  0.0000E+00
    -20.559  0.0000E+00  0.0000E+00  0.0000E+00  0.0000E+00  0.0000E+00  0.0000E+00  0.0000E+00  0.0000E+00  0.0000E+00
    -20.182  0.0000E+00  0.0000E+00  0.0000E+00  0.0000E+00  0.0000E+00  0.0000E+00  0.0000E+00  0.0000E+00  0.0000E+00
    -19.805  0.0000E+00  0.0000E+00  0.0000E+00  0.0000E+00  0.0000E+00  0.0000E+00  0.0000E+00  0.0000E+00  0.0000E+00
    -19.428  0.0000E+00  0.0000E+00  0.0000E+00  0.0000E+00  0.0000E+00  0.0000E+00  0.0000E+00  0.0000E+00  0.0000E+00
    -19.051  0.0000E+00  0.0000E+00  0.0000E+00  0.0000E+00  0.0000E+00  0.0000E+00  0.0000E+00  0.0000E+00  0.0000E+00
    -18.674  0.0000E+00  0.0000E+00  0.0000E+00  0.0000E+00  0.0000E+00  0.0000E+00  0.0000E+00  0.0000E+00  0.0000E+00
    -18.297  0.0000E+00  0.0000E+00  0.0000E+00  0.0000E+00  0.0000E+00  0.0000E+00  0.0000E+00  0.0000E+00  0.0000E+00
    -17.920  0.0000E+00  0.0000E+00  0.0000E+00  0.0000E+00  0.0000E+00  0.0000E+00  0.0000E+00  0.0000E+00  0.0000E+00
    -17.543  0.0000E+00  0.0000E+00  0.0000E+00  0.0000E+00  0.0000E+00  0.0000E+00  0.0000E+00  0.0000E+00  0.0000E+00
    -17.166  0.0000E+00  0.0000E+00  0.0000E+00  0.0000E+00  0.0000E+00  0.0000E+00  0.0000E+00  0.0000E+00  0.0000E+00
    -16.789  0.0000E+00  0.0000E+00  0.0000E+00  0.0000E+00  0.0000E+00  0.0000E+00  0.0000E+00  0.0000E+00  0.0000E+00
    -16.412  0.0000E+00  0.0000E+00  0.0000E+00  0.0000E+00  0.0000E+00  0.0000E+00  0.0000E+00  0.0000E+00  0.0000E+00
    -16.035  0.0000E+00  0.0000E+00  0.0000E+00  0.0000E+00  0.0000E+00  0.0000E+00  0.0000E+00  0.0000E+00  0.0000E+00
    -15.658  0.0000E+00  0.0000E+00  0.0000E+00  0.0000E+00  0.0000E+00  0.0000E+00  0.0000E+00  0.0000E+00  0.0000E+00
    -15.281  0.0000E+00  0.0000E+00  0.0000E+00  0.0000E+00  0.0000E+00  0.0000E+00  0.0000E+00  0.0000E+00  0.0000E+00
    -14.904  0.0000E+00  0.0000E+00  0.0000E+00  0.0000E+00  0.0000E+00  0.0000E+00  0.0000E+00  0.0000E+00  0.0000E+00
    -14.527  0.0000E+00  0.0000E+00  0.0000E+00  0.0000E+00  0.0000E+00  0.0000E+00  0.0000E+00  0.0000E+00  0.0000E+00
    -14.149  0.0000E+00  0.0000E+00  0.0000E+00  0.0000E+00  0.0000E+00  0.0000E+00  0.0000E+00  0.0000E+00  0.0000E+00
    -13.772  0.0000E+00  0.0000E+00  0.0000E+00  0.0000E+00  0.0000E+00  0.0000E+00  0.0000E+00  0.0000E+00  0.0000E+00
    -13.395  0.0000E+00  0.0000E+00  0.0000E+00  0.0000E+00  0.0000E+00  0.0000E+00  0.0000E+00  0.0000E+00  0.0000E+00
    -13.018  0.0000E+00  0.0000E+00  0.0000E+00  0.0000E+00  0.0000E+00  0.0000E+00  0.0000E+00  0.0000E+00  0.0000E+00
    -12.641  0.0000E+00  0.0000E+00  0.0000E+00  0.0000E+00  0.0000E+00  0.0000E+00  0.0000E+00  0.0000E+00  0.0000E+00
    -12.264  0.0000E+00  0.0000E+00  0.0000E+00  0.0000E+00  0.0000E+00  0.0000E+00  0.0000E+00  0.0000E+00  0.0000E+00
    -11.887  0.0000E+00  0.0000E+00  0.0000E+00  0.0000E+00  0.0000E+00  0.0000E+00  0.0000E+00  0.0000E+00  0.0000E+00
    -11.510  0.0000E+00  0.0000E+00  0.0000E+00  0.0000E+00  0.0000E+00  0.0000E+00  0.0000E+00  0.0000E+00  0.0000E+00
    -11.133  0.0000E+00  0.0000E+00  0.0000E+00  0.0000E+00  0.0000E+00  0.0000E+00  0.0000E+00  0.0000E+00  0.0000E+00
    -10.756  0.0000E+00  0.0000E+00  0.0000E+00  0.0000E+00  0.0000E+00  0.0000E+00  0.0000E+00  0.0000E+00  0.0000E+00
    -10.379  0.0000E+00  0.0000E+00  0.0000E+00  0.0000E+00  0.0000E+00  0.0000E+00  0.0000E+00  0.0000E+00  0.0000E+00
    -10.002  0.0000E+00  0.0000E+00  0.0000E+00  0.0000E+00  0.0000E+00  0.0000E+00  0.0000E+00  0.0000E+00  0.0000E+00
     -9.625  0.0000E+00  0.0000E+00  0.0000E+00  0.0000E+00  0.0000E+00  0.0000E+00  0.0000E+00  0.0000E+00  0.0000E+00
     -9.248  0.0000E+00  0.0000E+00  0.0000E+00  0.0000E+00  0.0000E+00  0.0000E+00  0.0000E+00  0.0000E+00  0.0000E+00
     -8.871  0.0000E+00  0.0000E+00  0.0000E+00  0.0000E+00  0.0000E+00  0.0000E+00  0.0000E+00  0.0000E+00  0.0000E+00
     -8.494  0.0000E+00  0.0000E+00  0.0000E+00  0.0000E+00  0.0000E+00  0.0000E+00  0.0000E+00  0.0000E+00  0.0000E+00
     -8.117  0.0000E+00  0.0000E+00  0.0000E+00  0.0000E+00  0.0000E+00  0.0000E+00  0.0000E+00  0.0000E+00  0.0000E+00
     -7.740  0.0000E+00  0.0000E+00  0.0000E+00  0.0000E+00  0.0000E+00  0.0000E+00  0.0000E+00  0.0000E+00  0.0000E+00
     -7.363  0.0000E+00  0.0000E+00  0.0000E+00  0.0000E+00  0.0000E+00  0.0000E+00  0.0000E+00  0.0000E+00  0.0000E+00
     -6.986  0.0000E+00  0.0000E+00  0.0000E+00  0.0000E+00  0.0000E+00  0.0000E+00  0.0000E+00  0.0000E+00  0.0000E+00
     -6.609  0.0000E+00  0.0000E+00  0.0000E+00  0.0000E+00  0.0000E+00  0.0000E+00  0.0000E+00  0.0000E+00  0.0000E+00
     -6.232  0.0000E+00  0.0000E+00  0.0000E+00  0.0000E+00  0.0000E+00  0.0000E+00  0.0000E+00  0.0000E+00  0.0000E+00
     -5.855  0.0000E+00  0.0000E+00  0.0000E+00  0.0000E+00  0.0000E+00  0.0000E+00  0.0000E+00  0.0000E+00  0.0000E+00
     -5.478  0.0000E+00  0.0000E+00  0.0000E+00  0.0000E+00  0.0000E+00  0.0000E+00  0.0000E+00  0.0000E+00  0.0000E+00
     -5.101  0.0000E+00  0.0000E+00  0.0000E+00  0.0000E+00  0.0000E+00  0.0000E+00  0.0000E+00  0.0000E+00  0.0000E+00
     -4.724  0.0000E+00  0.0000E+00  0.0000E+00  0.0000E+00  0.0000E+00  0.0000E+00  0.0000E+00  0.0000E+00  0.0000E+00
     -4.347  0.0000E+00  0.0000E+00  0.0000E+00  0.0000E+00  0.0000E+00  0.0000E+00  0.0000E+00  0.0000E+00  0.0000E+00
     -3.970  0.0000E+00  0.0000E+00  0.0000E+00  0.0000E+00  0.0000E+00  0.0000E+00  0.0000E+00  0.0000E+00  0.0000E+00
     -3.593  0.0000E+00  0.0000E+00  0.0000E+00  0.0000E+00  0.0000E+00  0.0000E+00  0.0000E+00  0.0000E+00  0.0000E+00
     -3.216  0.0000E+00  0.0000E+00  0.0000E+00  0.0000E+00  0.0000E+00  0.0000E+00  0.0000E+00  0.0000E+00  0.0000E+00
     -2.839  0.0000E+00  0.0000E+00  0.0000E+00  0.0000E+00  0.0000E+00  0.0000E+00  0.0000E+00  0.0000E+00  0.0000E+00
     -2.461  0.0000E+00  0.0000E+00  0.0000E+00  0.0000E+00  0.0000E+00  0.0000E+00  0.0000E+00  0.0000E+00  0.0000E+00
     -2.084  0.0000E+00  0.0000E+00  0.0000E+00  0.0000E+00  0.0000E+00  0.0000E+00  0.0000E+00  0.0000E+00  0.0000E+00
     -1.707  0.0000E+00  0.0000E+00  0.0000E+00  0.0000E+00  0.0000E+00  0.0000E+00  0.0000E+00  0.0000E+00  0.0000E+00
     -1.330  0.0000E+00  0.0000E+00  0.0000E+00  0.0000E+00  0.0000E+00  0.0000E+00  0.0000E+00  0.0000E+00  0.0000E+00
     -0.953  0.0000E+00  0.0000E+00  0.0000E+00  0.0000E+00  0.0000E+00  0.0000E+00  0.0000E+00  0.0000E+00  0.0000E+00
     -0.576  0.0000E+00  0.0000E+00  0.0000E+00  0.0000E+00  0.0000E+00  0.0000E+00  0.0000E+00  0.0000E+00  0.0000E+00
     -0.199  0.0000E+00  0.0000E+00  0.0000E+00  0.0000E+00  0.0000E+00  0.0000E+00  0.0000E+00  0.0000E+00  0.0000E+00
      0.178  0.0000E+00  0.0000E+00  0.0000E+00  0.0000E+00  0.0000E+00  0.0000E+00  0.0000E+00  0.0000E+00  0.0000E+00
      0.555  0.0000E+00  0.0000E+00  0.0000E+00  0.0000E+00  0.0000E+00  0.0000E+00  0.0000E+00  0.0000E+00  0.0000E+00
      0.932  0.3459E-16  0.3590E-19  0.3590E-19  0.3590E-19  0.2193E-20  0.2193E-20  0.4521E-34  0.2193E-20  0.4521E-34
      1.309  0.3914E-02  0.4064E-05  0.4064E-05  0.4064E-05  0.2483E-06  0.2483E-06  0.1646E-09  0.2483E-06  0.1646E-09
      1.686  0.1741E-01  0.8144E-04  0.8144E-04  0.8144E-04  0.1831E-04  0.1831E-04  0.5912E-05  0.1831E-04  0.5912E-05
      2.063  0.2083E-01  0.1772E-03  0.1772E-03  0.1772E-03  0.5362E-04  0.5362E-04  0.4516E-04  0.5362E-04  0.4516E-04
      2.440  0.3264E-01  0.4038E-03  0.4038E-03  0.4038E-03  0.3275E-03  0.3275E-03  0.7764E-04  0.3275E-03  0.7764E-04
      2.817  0.4758E-01  0.8628E-03  0.8628E-03  0.8628E-03  0.8721E-03  0.8721E-03  0.5335E-03  0.8721E-03  0.5335E-03
      3.194  0.2896E-01  0.6481E-03  0.6481E-03  0.6481E-03  0.1316E-02  0.1316E-02  0.3092E-03  0.1316E-02  0.3092E-03
      3.571  0.5058E-01  0.1311E-02  0.1311E-02  0.1311E-02  0.3635E-02  0.3635E-02  0.2151E-02  0.3635E-02  0.2151E-02
      3.948  0.7784E-01  0.2186E-02  0.2186E-02  0.2186E-02  0.1631E-01  0.1631E-01  0.2556E-02  0.1631E-01  0.2556E-02
      4.325  0.9933E-01  0.2587E-02  0.2587E-02  0.2587E-02  0.5386E-01  0.5386E-01  0.1810E-01  0.5386E-01  0.1810E-01
      4.702  0.1163E+00  0.3988E-02  0.3988E-02  0.3988E-02  0.7482E-01  0.7482E-01  0.1132E+00  0.7482E-01  0.1132E+00
      5.079  0.1048E+00  0.4801E-02  0.4801E-02  0.4801E-02  0.1790E+00  0.1790E+00  0.1352E+00  0.1790E+00  0.1352E+00
      5.456  0.5997E-01  0.4980E-02  0.4980E-02  0.4980E-02  0.2182E+00  0.2182E+00  0.1294E+00  0.2182E+00  0.1294E+00
      5.833  0.1968E-01  0.5010E-02  0.5010E-02  0.5010E-02  0.1677E+00  0.1677E+00  0.1256E+00  0.1677E+00  0.1256E+00
      6.210  0.1038E-01  0.7396E-02  0.7396E-02  0.7396E-02  0.1964E+00  0.1964E+00  0.1482E+00  0.1964E+00  0.1482E+00
      6.587  0.9022E-02  0.6819E-02  0.6819E-02  0.6819E-02  0.1992E+00  0.1992E+00  0.2216E+00  0.1992E+00  0.2216E+00
      6.964  0.1971E-01  0.9408E-02  0.9408E-02  0.9408E-02  0.3010E+00  0.3010E+00  0.1920E+00  0.3010E+00  0.1920E+00
      7.341  0.2689E-01  0.1069E-01  0.1069E-01  0.1069E-01  0.3054E+00  0.3054E+00  0.2684E+00  0.3054E+00  0.2684E+00
      7.718  0.2374E-01  0.1011E-01  0.1011E-01  0.1011E-01  0.3915E+00  0.3915E+00  0.2800E+00  0.3915E+00  0.2800E+00
      8.095  0.1305E-01  0.7683E-02  0.7683E-02  0.7683E-02  0.1947E+00  0.1947E+00  0.1914E+00  0.1947E+00  0.1914E+00
      8.472  0.1366E-01  0.6811E-02  0.6811E-02  0.6811E-02  0.1621E+00  0.1621E+00  0.2908E+00  0.1621E+00  0.2908E+00
      8.849  0.1097E-01  0.6544E-02  0.6544E-02  0.6544E-02  0.1588E+00  0.1588E+00  0.4964E+00  0.1588E+00  0.4964E+00
      9.227  0.1248E-01  0.4649E-02  0.4649E-02  0.4649E-02  0.1557E+00  0.1557E+00  0.3954E+00  0.1557E+00  0.3954E+00
      9.604  0.2092E-02  0.2917E-02  0.2917E-02  0.2917E-02  0.1210E+00  0.1210E+00  0.2344E+00  0.1210E+00  0.2344E+00
      9.981  0.8878E-02  0.3118E-02  0.3118E-02  0.3118E-02  0.1885E+00  0.1885E+00  0.2929E+00  0.1885E+00  0.2929E+00
     10.358  0.6931E-02  0.2049E-02  0.2049E-02  0.2049E-02  0.3658E+00  0.3658E+00  0.3391E+00  0.3658E+00  0.3391E+00
     10.735  0.1578E-01  0.3077E-02  0.3077E-02  0.3077E-02  0.3932E+00  0.3932E+00  0.1921E+00  0.3932E+00  0.1921E+00
     11.112  0.5003E-02  0.7896E-03  0.7896E-03  0.7896E-03  0.8842E-01  0.8842E-01  0.2178E-01  0.8842E-01  0.2178E-01
     11.489  0.2886E-01  0.5275E-02  0.5275E-02  0.5275E-02  0.7143E-01  0.7143E-01  0.6035E-01  0.7143E-01  0.6035E-01