Co-hcc                                  
   1.00000000000000     
     2.478540    0.000000    0.000000
    -1.239270    2.146479    0.000000
     0.000000    0.000000    4.010177
   Co
     2
Direct
  0.000000  0.000000  0.000000
  0.333333  0.666667  0.500000
 
   32   32   56
  202.11      197.65      184.86      165.43      141.66      116.04      90.786      67.688      47.995      32.441    
  21.242      14.101      10.234      8.5138      7.7162      7.2372      7.0842      7.2378      7.7138      8.5167    
  10.233      14.101      21.243      32.441      47.995      67.689      90.786      116.04      141.66      165.43    
  184.86      197.65      197.65      197.65      189.03      172.94      151.40      126.82      101.54      77.555    
  56.373      38.977      25.839      16.918      11.659      9.0945      7.9966      7.3758      7.0653      7.0630    
  7.3785      7.9953      9.0937      11.660      16.918      25.840      38.977      56.373      77.555      101.54    
  126.82      151.40      172.94      189.03      184.86      189.02      184.86      172.94      154.80      132.57    
  108.56      84.877      63.204      44.753      30.237      19.861      13.316      9.8281      8.2860      7.5314    
  7.0727      6.9268      7.0730      7.5296      8.2888      9.8261      13.317      19.860      30.237      44.753    
  63.204      84.877      108.56      132.57      154.80      172.94      165.43      172.93      172.93      165.43    
  151.40      132.57      111.01      88.781      67.676      49.069      33.883      22.545      14.992      10.660    
  8.6084      7.6804      7.1060      6.8241      6.8223      7.1086      7.6778      8.6098      10.659      14.992    
  22.545      33.882      49.069      67.675      88.781      111.01      132.57      151.40      141.66      151.39    
  154.77      151.39      141.66      126.82      108.56      88.781      69.232      51.378      36.291      24.594    
  16.435      11.470      8.9467      7.8138      7.1520      6.7549      6.6265      6.7544      7.1524      7.8144    
  8.9458      11.472      16.434      24.595      36.291      51.379      69.232      88.781      108.56      126.82    
  116.04      126.80      132.54      132.54      126.80      116.04      101.54      84.878      67.675      51.379    
  37.133      25.702      17.410      12.118      9.2547      7.9294      7.1975      6.7148      6.4809      6.4816    
  6.7146      7.1969      7.9304      9.2534      12.119      17.409      25.703      37.132      51.379      67.675    
  84.877      101.54      90.786      101.52      108.53      110.97      108.53      101.52      90.786      77.555    
  63.204      49.070      36.291      25.703      17.755      12.476      9.4730      8.0180      7.2361      6.6922    
  6.3831      6.2794      6.3828      6.6931      7.2350      8.0192      9.4722      12.477      17.754      25.703    
  36.291      49.069      63.204      77.555      67.689      77.547      84.855      88.749      88.749      84.856    
  77.547      67.689      56.373      44.753      33.882      24.595      17.410      12.477      9.5516      8.0680    
  7.2599      6.6830      6.3203      6.1450      6.1458      6.3191      6.6841      7.2587      8.0688      9.5505    
  12.477      17.409      24.595      33.882      44.753      56.373      47.995      56.381      63.208      67.672    
  69.225      67.671      63.207      56.381      47.995      38.977      30.236      22.546      16.434      12.118    
  9.4724      8.0680      7.2683      6.6793      6.2868      6.0631      5.9929      6.0637      6.2863      6.6801    
  7.2679      8.0688      9.4722      12.119      16.434      22.545      30.237      38.977      32.441      39.002    
  44.789      49.107      51.416      51.416      49.108      44.790      39.002      32.441      25.840      19.861    
  14.991      11.472      9.2539      8.0188      7.2597      6.6795      6.2762      6.0253      5.9092      5.9079    
  6.0262      6.2750      6.6801      7.2587      8.0192      9.2534      11.472      14.992      19.860      25.840    
  21.243      25.881      30.307      33.968      36.383      37.227      36.383      33.967      30.306      25.881    
  21.243      16.918      13.316      10.661      8.9447      7.9306      7.2348      6.6834      6.2863      6.0257    
  5.8818      5.8364      5.8818      6.0262      6.2863      6.6841      7.2350      7.9304      8.9458      10.659    
  13.317      16.918      14.101      16.972      19.957      22.673      24.741      25.859      25.858      24.742    
  22.674      19.958      16.972      14.101      11.660      9.8273      8.6074      7.8158      7.1964      6.6937    
  6.3198      6.0636      5.9089      5.8358      5.8364      5.9079      6.0637      6.3191      6.6931      7.1969    
  7.8144      8.6098      9.8261      11.660      10.233      11.721      13.432      15.151      16.624      17.619    
  17.970      17.619      16.624      15.150      13.431      11.721      10.235      9.0921      8.2883      7.6804    
  7.1505      6.7156      6.3816      6.1457      5.9921      5.9089      5.8818      5.9092      5.9929      6.1458    
  6.3828      6.7146      7.1524      7.6778      8.2888      9.0937      8.5167      9.1577      9.9511      10.836    
  11.691      12.367      12.740      12.740      12.366      11.692      10.838      9.9523      9.1561      8.5150    
  7.9985      7.5282      7.1072      6.7556      6.4810      6.2806      6.1457      6.0636      6.0257      6.0253    
  6.0631      6.1450      6.2794      6.4816      6.7544      7.1086      7.5296      7.9953      7.7138      8.0605    
  8.4173      8.7943      9.1791      9.5242      9.7664      9.8532      9.7666      9.5243      9.1781      8.7917    
  8.4168      8.0637      7.7131      7.3760      7.0751      6.8231      6.6258      6.4810      6.3816      6.3198    
  6.2863      6.2762      6.2868      6.3203      6.3831      6.4809      6.6265      6.8223      7.0730      7.3785    
  7.2378      7.4443      7.6595      7.8658      8.0556      8.2151      8.3336      8.3984      8.3979      8.3336    
  8.2152      8.0573      7.8684      7.6580      7.4418      7.2397      7.0643      6.9250      6.8231      6.7556    
  6.7156      6.6937      6.6834      6.6795      6.6793      6.6830      6.6922      6.7148      6.7549      6.8241    
  6.9268      7.0630      7.0842      7.1292      7.2036      7.2996      7.3983      7.4888      7.5605      7.6055    
  7.6216      7.6059      7.5605      7.4879      7.3966      7.2981      7.2058      7.1304      7.0823      7.0643    
  7.0751      7.1072      7.1505      7.1964      7.2348      7.2597      7.2683      7.2599      7.2361      7.1975    
  7.1520      7.1060      7.0727      7.0653      7.2372      7.1315      7.0579      7.0146      7.0032      7.0114    
  7.0286      7.0467      7.0567      7.0569      7.0461      7.0294      7.0123      7.0044      7.0154      7.0560    
  7.1304      7.2397      7.3760      7.5282      7.6804      7.8158      7.9306      8.0188      8.0680      8.0680    
  8.0180      7.9294      7.8138      7.6804      7.5314      7.3758      7.7162      7.4416      7.2034      7.0166    
  6.8762      6.7818      6.7251      6.6931      6.6794      6.6751      6.6796      6.6931      6.7241      6.7810    
  6.8757      7.0154      7.2058      7.4418      7.7131      7.9985      8.2883      8.6074      8.9447      9.2539    
  9.4724      9.5516      9.4730      9.2547      8.9467      8.6084      8.2860      7.9966      8.5138      8.0618    
  7.6613      7.2969      7.0038      6.7809      6.6239      6.5245      6.4665      6.4413      6.4408      6.4670    
  6.5244      6.6251      6.7810      7.0044      7.2981      7.6580      8.0637      8.5150      9.0921      9.8273    
  10.661      11.472      12.118      12.477      12.476      12.118      11.470      10.660      9.8281      9.0945    
  10.234      9.1586      8.4144      7.8685      7.3979      7.0118      6.7253      6.5242      6.4000      6.3323    
  6.3121      6.3322      6.3995      6.5244      6.7241      7.0123      7.3966      7.8684      8.4168      9.1561    
  10.235      11.660      13.316      14.991      16.434      17.410      17.755      17.410      16.435      14.992    
  13.316      11.659      14.101      11.719      9.9532      8.7927      8.0553      7.4891      7.0278      6.6938    
  6.4662      6.3326      6.2699      6.2708      6.3322      6.4670      6.6931      7.0294      7.4879      8.0573    
  8.7917      9.9523      11.721      14.101      16.918      19.861      22.546      24.595      25.703      25.702    
  24.594      22.545      19.861      16.918      21.242      16.972      13.431      10.837      9.1799      8.2143    
  7.5616      7.0459      6.6799      6.4408      6.3125      6.2699      6.3121      6.4408      6.6796      7.0461    
  7.5605      8.2152      9.1781      10.838      13.431      16.972      21.243      25.840      30.236      33.882    
  36.291      37.133      36.291      33.883      30.237      25.839      32.441      25.881      19.958      15.151    
  11.690      9.5249      8.3329      7.6059      7.0567      6.6752      6.4408      6.3326      6.3323      6.4413    
  6.6751      7.0569      7.6059      8.3336      9.5243      11.692      15.150      19.958      25.881      32.441    
  38.977      44.753      49.070      51.379      51.378      49.069      44.753      38.977      47.995      39.003    
  30.306      22.673      16.625      12.366      9.7670      8.3980      7.6218      7.0567      6.6799      6.4662    
  6.4000      6.4665      6.6794      7.0567      7.6216      8.3979      9.7666      12.366      16.624      22.674    
  30.306      39.002      47.995      56.373      63.204      67.675      69.232      67.676      63.204      56.373    
  67.688      56.380      44.789      33.968      24.741      17.619      12.740      9.8533      8.3980      7.6059    
  7.0459      6.6938      6.5242      6.5245      6.6931      7.0467      7.6055      8.3984      9.8532      12.740    
  17.619      24.742      33.967      44.790      56.381      67.689      77.555      84.878      88.781      88.781    
  84.877      77.555      90.786      77.547      63.207      49.107      36.384      25.858      17.971      12.740    
  9.7670      8.3329      7.5616      7.0278      6.7253      6.6239      6.7251      7.0286      7.5605      8.3336    
  9.7664      12.740      17.970      25.858      36.383      49.108      63.207      77.547      90.786      101.54    
  108.56      111.01      108.56      101.54      116.04      101.52      84.855      67.672      51.415      37.227    
  25.858      17.619      12.366      9.5249      8.2143      7.4891      7.0118      6.7809      6.7818      7.0114    
  7.4888      8.2151      9.5242      12.367      17.619      25.859      37.227      51.416      67.671      84.856    
  101.52      116.04      126.82      132.57      132.57      126.82      141.66      126.80      108.53      88.749    
  69.226      51.415      36.384      24.741      16.625      11.690      9.1799      8.0553      7.3979      7.0038    
  6.8762      7.0032      7.3983      8.0556      9.1791      11.691      16.624      24.741      36.383      51.416    
  69.225      88.749      108.53      126.80      141.66      151.40      154.80      151.40      165.43      151.39    
  132.54      110.97      88.749      67.672      49.107      33.968      22.673      15.151      10.837      8.7927    
  7.8685      7.2969      7.0166      7.0146      7.2996      7.8658      8.7943      10.836      15.151      22.673    
  33.968      49.107      67.672      88.749      110.97      132.54      151.39      165.43      172.94      172.94    
  184.86      172.93      154.77      132.54      108.53      84.855      63.207      44.789      30.306      19.958    
  13.431      9.9532      8.4144      7.6613      7.2034      7.0579      7.2036      7.6595      8.4173      9.9511    
  13.432      19.957      30.307      44.789      63.208      84.855      108.53      132.54      154.77      172.93    
  184.86      189.03      197.65      189.02      172.93      151.39      126.80      101.52      77.547      56.380    
  39.003      25.881      16.972      11.719      9.1586      8.0618      7.4416      7.1315      7.1292      7.4443    
  8.0605      9.1577      11.721      16.972      25.881      39.002      56.381      77.547      101.52      126.80    
  151.39      172.93      189.02      197.65      198.29      193.91      181.38      162.32      139.01      113.85    
  89.062      66.382      47.053      31.805      20.848      13.883      10.129      8.4620      7.6776      7.2045    
  7.0537      7.2051      7.6754      8.4649      10.127      13.884      20.848      31.805      47.053      66.382    
  89.062      113.86      139.01      162.32      181.38      193.91      193.91      193.91      185.46      169.69    
  148.56      124.44      99.616      76.067      55.271      38.206      25.339      16.624      11.507      9.0225    
  7.9532      7.3392      7.0332      7.0308      7.3421      7.9514      9.0221      11.507      16.624      25.339    
  38.206      55.271      76.067      99.615      124.44      148.56      169.69      185.46      181.38      185.46    
  181.38      169.69      151.89      130.08      106.51      83.254      61.973      43.867      29.640      19.493    
  13.114      9.7294      8.2347      7.4912      7.0387      6.8947      7.0389      7.4897      8.2374      9.7272    
  13.115      19.492      29.641      43.867      61.974      83.254      106.51      130.08      151.89      169.69    
  162.32      169.68      169.68      162.32      148.56      130.08      108.91      87.086      66.362      48.099    
  33.209      22.113      14.742      10.532      8.5454      7.6373      7.0697      6.7918      6.7901      7.0722    
  7.6346      8.5470      10.531      14.742      22.113      33.208      48.099      66.361      87.086      108.91    
  130.08      148.56      139.01      148.55      151.87      148.55      139.01      124.44      106.51      87.086    
  67.889      50.363      35.567      24.113      16.146      11.315      8.8704      7.7676      7.1136      6.7222    
  6.5955      6.7216      7.1141      7.7679      8.8696      11.317      16.145      24.115      35.567      50.364    
  67.888      87.086      106.51      124.44      113.85      124.42      130.05      130.05      124.42      113.86    
  99.616      83.255      66.361      50.364      36.391      25.197      17.095      11.942      9.1656      7.8797    
  7.1570      6.6816      6.4505      6.4517      6.6807      7.1571      7.8800      9.1648      11.942      17.094    
  25.197      36.391      50.364      66.362      83.254      99.616      89.062      99.604      106.49      108.88    
  106.49      99.603      89.062      76.066      61.973      48.099      35.567      25.197      17.431      12.289    
  9.3755      7.9644      7.1946      6.6578      6.3533      6.2511      6.3529      6.6587      7.1936      7.9657    
  9.3747      12.290      17.430      25.198      35.566      48.099      61.973      76.067      66.382      76.065    
  83.243      87.069      87.069      83.244      76.065      66.382      55.271      43.868      33.208      24.115    
  17.094      12.290      9.4508      8.0124      7.2175      6.6481      6.2903      6.1180      6.1184      6.2895    
  6.6488      7.2165      8.0129      9.4498      12.290      17.094      24.115      33.208      43.867      55.271    
  47.053      55.285      61.989      66.374      67.899      66.373      61.988      55.285      47.053      38.206    
  29.640      22.114      16.145      11.942      9.3748      8.0124      7.2257      6.6440      6.2569      6.0365    
  5.9674      6.0370      6.2564      6.6449      7.2253      8.0133      9.3746      11.943      16.145      22.113    
  29.640      38.206      31.805      38.237      43.914      48.153      50.419      50.420      48.153      43.915    
  38.237      31.805      25.339      19.493      14.741      11.317      9.1649      7.9654      7.2173      6.6443    
  6.2461      5.9990      5.8843      5.8834      5.9997      6.2451      6.6446      7.2163      7.9655      9.1645    
  11.317      14.743      19.492      25.339      20.848      25.386      29.720      33.309      35.677      36.504    
  35.677      33.308      29.719      25.386      20.848      16.624      13.114      10.533      8.8682      7.8807    
  7.1932      6.6485      6.2563      5.9994      5.8573      5.8127      5.8573      6.0000      6.2563      6.6493    
  7.1934      7.8806      8.8693      10.531      13.115      16.624      13.884      16.683      19.598      22.254    
  24.278      25.372      25.371      24.278      22.255      19.599      16.683      13.883      11.508      9.7283    
  8.5445      7.7696      7.1562      6.6594      6.2899      6.0370      5.8842      5.8121      5.8126      5.8832    
  6.0370      6.2892      6.6588      7.1566      7.7682      8.5469      9.7274      11.508      10.127      11.572    
  13.237      14.913      16.350      17.321      17.664      17.321      16.350      14.911      13.236      11.572    
  10.129      9.0202      8.2371      7.6371      7.1122      6.6820      6.3517      6.1185      5.9666      5.8842    
  5.8574      5.8845      5.9674      6.1187      6.3529      6.6812      7.1139      7.6347      8.2373      9.0220    
  8.4648      9.0893      9.8592      10.718      11.549      12.206      12.569      12.570      12.206      11.550    
  10.720      9.8604      9.0874      8.4635      7.9547      7.4881      7.0709      6.7228      6.4508      6.2523    
  6.1184      6.0371      5.9992      5.9989      6.0364      6.1177      6.2511      6.4513      6.7218      7.0722    
  7.4898      7.9515      7.6754      8.0199      8.3721      8.7409      9.1145      9.4493      9.6842      9.7684    
  9.6844      9.4494      9.1135      8.7381      8.3720      8.0230      7.6745      7.3397      7.0410      6.7908    
  6.5949      6.4509      6.3517      6.2899      6.2564      6.2463      6.2569      6.2906      6.3532      6.4510    
  6.5952      6.7901      7.0388      7.3420      7.2050      7.4107      7.6256      7.8313      8.0204      8.1782    
  8.2948      8.3583      8.3578      8.2949      8.1784      8.0221      7.8337      7.6238      7.4084      7.2070    
  7.0321      6.8929      6.7908      6.7227      6.6820      6.6594      6.6484      6.6440      6.6439      6.6478    
  6.6579      6.6811      6.7225      6.7918      6.8948      7.0309      7.0537      7.1001      7.1752      7.2716    
  7.3705      7.4613      7.5333      7.5784      7.5945      7.5787      7.5332      7.4603      7.3690      7.2703    
  7.1774      7.1012      7.0518      7.0321      7.0410      7.0710      7.1122      7.1562      7.1933      7.2175    
  7.2258      7.2178      7.1946      7.1575      7.1134      7.0697      7.0386      7.0331      7.2045      7.1022    
  7.0315      6.9906      6.9811      6.9901      7.0078      7.0263      7.0364      7.0366      7.0257      7.0089    
  6.9910      6.9820      6.9914      7.0296      7.1012      7.2071      7.3396      7.4881      7.6370      7.7696    
  7.8805      7.9652      8.0123      8.0121      7.9644      7.8792      7.7679      7.6373      7.4913      7.3393    
  7.6776      7.4082      7.1750      6.9925      6.8553      6.7636      6.7087      6.6777      6.6646      6.6603    
  6.6647      6.6776      6.7077      6.7629      6.8551      6.9914      7.1774      7.4084      7.6745      7.9547    
  8.2372      8.5445      8.8684      9.1651      9.3749      9.4511      9.3755      9.1660      8.8702      8.5454    
  8.2346      7.9530      8.4618      8.0212      7.6271      7.2690      6.9817      6.7629      6.6089      6.5116    
  6.4547      6.4302      6.4296      6.4555      6.5114      6.6101      6.7629      6.9820      7.2702      7.6239    
  8.0229      8.4635      9.0202      9.7285      10.533      11.317      11.942      12.289      12.289      11.942    
  11.315      10.532      9.7295      9.0227      10.129      9.0901      8.3693      7.8342      7.3698      6.9905    
  6.7088      6.5113      6.3893      6.3229      6.3030      6.3228      6.3888      6.5116      6.7076      6.9911    
  7.3689      7.8338      8.3720      9.0876      10.129      11.508      13.114      14.741      16.145      17.095    
  17.431      17.095      16.146      14.742      13.113      11.507      13.883      11.571      9.8615      8.7389    
  8.0204      7.4616      7.0072      6.6783      6.4545      6.3232      6.2617      6.2625      6.3229      6.4552    
  6.6778      7.0086      7.4605      8.0219      8.7383      9.8601      11.573      13.883      16.624      19.493    
  22.114      24.114      25.197      25.197      24.114      22.113      19.493      16.624      20.848      16.683    
  13.236      10.719      9.1153      8.1773      7.5344      7.0254      6.6652      6.4295      6.3035      6.2614    
  6.3032      6.4296      6.6648      7.0256      7.5333      8.1784      9.1136      10.720      13.236      16.682    
  20.848      25.339      29.640      33.208      35.567      36.392      35.567      33.209      29.640      25.339    
  31.805      25.385      19.599      14.912      11.548      9.4502      8.2941      7.5789      7.0362      6.6605    
  6.4296      6.3233      6.3228      6.4300      6.6604      7.0366      7.5788      8.2948      9.4494      11.550    
  14.911      19.599      25.386      31.805      38.206      43.867      48.099      50.363      50.363      48.099    
  43.867      38.206      47.053      38.238      29.720      22.254      16.351      12.205      9.6849      8.3577    
  7.5948      7.0362      6.6651      6.4543      6.3894      6.4548      6.6646      7.0363      7.5946      8.3578    
  9.6844      12.206      16.350      22.255      29.720      38.237      47.053      55.271      61.973      66.361    
  67.889      66.362      61.973      55.271      66.382      55.284      43.915      33.308      24.277      17.321    
  12.569      9.7686      8.3578      7.5788      7.0255      6.6784      6.5113      6.5115      6.6778      7.0262    
  7.5785      8.3582      9.7684      12.569      17.321      24.278      33.307      43.915      55.285      66.382    
  76.066      83.254      87.086      87.086      83.254      76.067      89.062      76.065      61.989      48.153    
  35.678      25.371      17.665      12.569      9.6849      8.2940      7.5344      7.0070      6.7089      6.6090    
  6.7087      7.0078      7.5334      8.2948      9.6843      12.569      17.664      25.371      35.677      48.154    
  61.988      76.065      89.062      99.616      106.51      108.91      106.51      99.615      113.85      99.603    
  83.244      66.374      50.419      36.505      25.371      17.321      12.206      9.4500      8.1776      7.4615    
  6.9907      6.7626      6.7639      6.9898      7.4616      8.1780      9.4496      12.206      17.321      25.371    
  36.505      50.419      66.373      83.244      99.603      113.85      124.44      130.08      130.08      124.44    
  139.01      124.42      106.49      87.068      67.900      50.418      35.678      24.277      16.351      11.548    
  9.1154      8.0199      7.3701      6.9815      6.8555      6.9808      7.3707      8.0201      9.1148      11.549    
  16.350      24.278      35.677      50.419      67.899      87.069      106.49      124.42      139.01      148.56    
  151.89      148.56      162.32      148.55      130.05      108.88      87.068      66.374      48.153      33.309    
  22.254      14.913      10.719      8.7392      7.8340      7.2691      6.9924      6.9908      7.2715      7.8315    
  8.7407      10.718      14.913      22.254      33.308      48.153      66.374      87.068      108.88      130.05    
  148.55      162.32      169.69      169.69      181.38      169.68      151.87      130.05      106.49      83.244    
  61.989      43.915      29.720      19.599      13.236      9.8612      8.3695      7.6270      7.1751      7.0314    
  7.1753      7.6254      8.3722      9.8591      13.237      19.598      29.721      43.914      61.989      83.244    
  106.49      130.05      151.87      169.68      181.38      185.46      193.91      185.46      169.68      148.55    
  124.42      99.604      76.065      55.285      38.237      25.386      16.683      11.571      9.0898      8.0214    
  7.4080      7.1024      7.0998      7.4110      8.0196      9.0895      11.572      16.683      25.386      38.237    
  55.285      76.065      99.603      124.42      148.55      169.68      185.46      193.91      187.26      183.14    
  171.33      153.36      131.33      107.54      84.073      62.603      44.334      29.973      19.720      13.264    
  9.8311      8.3138      7.5652      7.1100      6.9653      7.1103      7.5637      8.3167      9.8289      13.265    
  19.720      29.974      44.334      62.604      84.073      107.54      131.33      153.36      171.33      183.14    
  183.14      183.14      175.18      160.31      140.36      117.55      94.057      71.761      52.087      35.985    
  23.903      15.787      11.076      8.8188      7.8266      7.2333      6.9400      6.9377      7.2360      7.8240    
  8.8195      11.076      15.787      23.903      35.985      52.086      71.761      94.057      117.55      140.36    
  160.31      175.18      171.33      175.18      171.33      160.31      143.50      122.88      100.58      78.558    
  58.416      41.311      27.924      18.441      12.539      9.4508      8.0873      7.3741      6.9400      6.8014    
  6.9400      7.3734      8.0895      9.4484      12.541      18.440      27.925      41.311      58.416      78.559    
  100.58      122.88      143.50      160.31      153.36      160.30      160.30      153.36      140.36      122.88    
  102.85      82.183      62.562      45.297      31.268      20.874      14.031      10.169      8.3660      7.5113    
  6.9644      6.6978      6.6967      6.9660      7.5090      8.3680      10.168      14.031      20.874      31.268    
  45.297      62.561      82.183      102.85      122.88      140.36      131.33      140.35      143.50      140.35    
  131.33      117.55      100.58      82.182      64.005      47.431      33.481      22.736      15.322      10.876    
  8.6538      7.6333      7.0014      6.6271      6.5052      6.6266      7.0024      7.6329      8.6536      10.877    
  15.321      22.737      33.481      47.433      64.005      82.182      100.58      117.55      107.54      117.55    
  122.88      122.88      117.55      107.54      94.057      78.559      62.561      47.433      34.255      23.747    
  16.196      11.443      8.9141      7.7355      7.0395      6.5842      6.3623      6.3641      6.5825      7.0406    
  7.7350      8.9140      11.443      16.196      23.747      34.255      47.432      62.562      78.558      94.058    
  84.073      94.062      100.59      102.85      100.58      94.061      84.073      71.760      58.416      45.298    
  33.481      23.746      16.507      11.758      9.0999      7.8104      7.0734      6.5579      6.2661      6.1688    
  6.2660      6.5584      7.0725      7.8118      9.0991      11.759      16.506      23.747      33.480      45.297    
  58.416      71.761      62.603      71.777      78.580      82.206      82.206      78.581      71.776      62.604    
  52.087      41.312      31.267      22.738      16.195      11.759      9.1662      7.8529      7.0937      6.5463    
  6.2029      6.0389      6.0387      6.2030      6.5465      7.0931      7.8530      9.1655      11.759      16.195    
  22.737      31.268      41.310      52.087      44.334      52.118      58.465      62.619      64.063      62.618    
  58.464      52.118      44.334      35.984      27.924      20.875      15.320      11.444      9.0991      7.8527    
  7.1013      6.5409      6.1696      5.9590      5.8928      5.9592      6.1690      6.5419      7.1009      7.8537    
  9.0989      11.444      15.320      20.874      27.925      35.985      29.973      36.032      41.390      45.396    
  47.540      47.541      45.397      41.392      36.032      29.974      23.904      18.441      14.029      10.877    
  8.9135      7.8117      7.0935      6.5413      6.1585      5.9221      5.8120      5.8116      5.9225      6.1577    
  6.5414      7.0928      7.8115      8.9135      10.877      14.031      18.440      23.904      19.719      23.965    
  28.034      31.411      33.642      34.423      33.642      31.409      28.033      23.965      19.720      15.786    
  12.540      10.171      8.6518      7.7364      7.0718      6.5467      6.1689      5.9225      5.7859      5.7432    
  5.7859      5.9231      6.1689      6.5474      7.0722      7.7361      8.6528      10.168      12.540      15.787    
  13.265      15.858      18.572      21.053      22.949      23.974      23.974      22.949      21.054      18.572    
  15.858      13.264      11.077      9.4490      8.3657      7.6348      7.0390      6.5594      6.2027      5.9593    
  5.8120      5.7429      5.7431      5.8111      5.9592      6.2022      6.5587      7.0396      7.6336      8.3680    
  9.4487      11.076      9.8290      11.152      12.685      14.235      15.568      16.471      16.791      16.471    
  15.568      14.233      12.685      11.153      9.8307      8.8168      8.0903      7.5105      7.0008      6.5841    