   2   2   1   0
  0.1017687E+02  0.2442430E-09  0.2442430E-09  0.3939755E-09  0.5000000E-15
  1.000000000000000E-004
  CAR 
 Co-hcc                                  
     59.49922946     -0.83690985  301     11.18763395      1.00000000
     -0.837  0.0000E+00  0.0000E+00  0.0000E+00  0.0000E+00
     -0.636  0.0000E+00  0.0000E+00  0.0000E+00  0.0000E+00
     -0.435  0.0000E+00  0.0000E+00  0.0000E+00  0.0000E+00
     -0.234  0.0000E+00  0.0000E+00  0.0000E+00  0.0000E+00
     -0.032  0.0000E+00  0.0000E+00  0.0000E+00  0.0000E+00
      0.169  0.0000E+00  0.0000E+00  0.0000E+00  0.0000E+00
      0.370  0.0000E+00  0.0000E+00  0.0000E+00  0.0000E+00
      0.571  0.0000E+00  0.0000E+00  0.0000E+00  0.0000E+00
      0.772  0.0000E+00  0.0000E+00  0.0000E+00  0.0000E+00
      0.973  0.0000E+00  0.0000E+00  0.0000E+00  0.0000E+00
      1.174  0.0000E+00  0.0000E+00  0.0000E+00  0.0000E+00
      1.375  0.0000E+00  0.0000E+00  0.0000E+00  0.0000E+00
      1.577  0.0000E+00  0.0000E+00  0.0000E+00  0.0000E+00
      1.778  0.6358E-08  0.5287E-08  0.1279E-08  0.1063E-08
      1.979  0.4269E-04  0.4252E-04  0.8586E-05  0.8553E-05
      2.180  0.2698E-03  0.2630E-03  0.6286E-04  0.6144E-04
      2.381  0.5659E-03  0.5665E-03  0.1767E-03  0.1754E-03
      2.582  0.9722E-04  0.9694E-04  0.1962E-03  0.1949E-03
      2.783  0.5285E-03  0.4646E-03  0.3025E-03  0.2883E-03
      2.984  0.1058E-02  0.1116E-02  0.5153E-03  0.5129E-03
      3.185  0.5058E-03  0.5152E-03  0.6170E-03  0.6165E-03
      3.387  0.5984E-03  0.5932E-03  0.7374E-03  0.7358E-03
      3.588  0.1223E-02  0.9623E-03  0.9833E-03  0.9293E-03
      3.789  0.1330E-02  0.1442E-02  0.1251E-02  0.1219E-02
      3.990  0.3995E-03  0.2784E-03  0.1331E-02  0.1275E-02
      4.191  0.2167E-02  0.1636E-02  0.1767E-02  0.1604E-02
      4.392  0.4207E-03  0.1214E-02  0.1852E-02  0.1848E-02
      4.593  0.1065E-02  0.7939E-03  0.2066E-02  0.2008E-02
      4.794  0.2036E-02  0.6649E-03  0.2475E-02  0.2142E-02
      4.996  0.1986E-02  0.2858E-02  0.2875E-02  0.2716E-02
      5.197  0.2711E-02  0.1630E-02  0.3420E-02  0.3044E-02
      5.398  0.1420E-02  0.1767E-02  0.3705E-02  0.3399E-02
      5.599  0.2938E-02  0.1062E-02  0.4296E-02  0.3613E-02
      5.800  0.6844E-02  0.2321E-02  0.5673E-02  0.4080E-02
      6.001  0.9990E-02  0.2197E-02  0.7682E-02  0.4522E-02
      6.202  0.9478E-02  0.3176E-02  0.9588E-02  0.5161E-02
      6.403  0.1505E-01  0.3466E-02  0.1262E-01  0.5858E-02
      6.605  0.1679E-01  0.5013E-02  0.1599E-01  0.6866E-02
      6.806  0.1525E-01  0.4726E-02  0.1906E-01  0.7816E-02
      7.007  0.1383E-01  0.6982E-02  0.2184E-01  0.9220E-02
      7.208  0.1701E-01  0.1051E-01  0.2526E-01  0.1133E-01
      7.409  0.1682E-01  0.8839E-02  0.2865E-01  0.1311E-01
      7.610  0.1812E-01  0.9190E-02  0.3229E-01  0.1496E-01
      7.811  0.2140E-01  0.1580E-01  0.3659E-01  0.1814E-01
      8.012  0.8918E-02  0.1247E-01  0.3839E-01  0.2065E-01
      8.214  0.1736E-01  0.1118E-01  0.4188E-01  0.2289E-01
      8.415  0.2738E-01  0.1298E-01  0.4739E-01  0.2550E-01
      8.616  0.2385E-01  0.1547E-01  0.5218E-01  0.2862E-01
      8.817  0.2803E-01  0.1602E-01  0.5782E-01  0.3184E-01
      9.018  0.2978E-01  0.2027E-01  0.6381E-01  0.3592E-01
      9.219  0.2293E-01  0.8859E-02  0.6842E-01  0.3770E-01
      9.420  0.1737E-01  0.7725E-02  0.7191E-01  0.3925E-01
      9.621  0.1782E-01  0.1556E-01  0.7550E-01  0.4238E-01
      9.822  0.1670E-01  0.2102E-01  0.7886E-01  0.4661E-01
     10.024  0.1331E-01  0.2132E-01  0.8153E-01  0.5089E-01
     10.225  0.2353E-01  0.2292E-01  0.8627E-01  0.5550E-01
     10.426  0.2444E-01  0.2721E-01  0.9118E-01  0.6098E-01
     10.627  0.3925E-01  0.2707E-01  0.9908E-01  0.6642E-01
     10.828  0.2632E-01  0.1514E-01  0.1044E+00  0.6947E-01
     11.029  0.1519E-02  0.1635E-01  0.1047E+00  0.7276E-01
     11.230  0.5674E-02  0.1109E-01  0.1058E+00  0.7499E-01
     11.431  0.4794E-02  0.1685E-01  0.1068E+00  0.7837E-01
     11.633  0.2257E-02  0.9805E-02  0.1072E+00  0.8035E-01
     11.834  0.1421E-02  0.1340E-01  0.1075E+00  0.8304E-01
     12.035  0.5364E-03  0.2156E-01  0.1076E+00  0.8738E-01
     12.236  0.2480E-02  0.2315E-01  0.1081E+00  0.9203E-01
     12.437  0.4269E-02  0.3575E-01  0.1090E+00  0.9922E-01
     12.638  0.5158E-02  0.2787E-01  0.1100E+00  0.1048E+00
     12.839  0.2924E-02  0.7826E-02  0.1106E+00  0.1064E+00
     13.040  0.1473E-02  0.3605E-02  0.1109E+00  0.1071E+00
     13.242  0.1945E-02  0.3091E-02  0.1113E+00  0.1077E+00
     13.443  0.2240E-02  0.3027E-02  0.1117E+00  0.1084E+00
     13.644  0.1485E-02  0.3328E-02  0.1120E+00  0.1090E+00
     13.845  0.2620E-02  0.4231E-02  0.1126E+00  0.1099E+00
     14.046  0.2204E-02  0.4563E-02  0.1130E+00  0.1108E+00
     14.247  0.2546E-02  0.1850E-02  0.1135E+00  0.1112E+00
     14.448  0.2423E-02  0.3816E-02  0.1140E+00  0.1119E+00
     14.649  0.9592E-03  0.1598E-02  0.1142E+00  0.1123E+00
     14.850  0.2482E-02  0.2132E-02  0.1147E+00  0.1127E+00
     15.052  0.4011E-02  0.3055E-02  0.1155E+00  0.1133E+00
     15.253  0.2182E-02  0.2257E-02  0.1160E+00  0.1138E+00
     15.454  0.1409E-02  0.1832E-02  0.1162E+00  0.1141E+00
     15.655  0.2134E-02  0.2700E-02  0.1167E+00  0.1147E+00
     15.856  0.2002E-02  0.3871E-02  0.1171E+00  0.1154E+00
     16.057  0.1168E-02  0.2569E-02  0.1173E+00  0.1160E+00
     16.258  0.1393E-02  0.6604E-03  0.1176E+00  0.1161E+00
     16.459  0.1067E-02  0.2767E-02  0.1178E+00  0.1167E+00
     16.661  0.7169E-03  0.2438E-02  0.1179E+00  0.1171E+00
     16.862  0.2415E-02  0.1349E-02  0.1184E+00  0.1174E+00
     17.063  0.4226E-02  0.1494E-02  0.1193E+00  0.1177E+00
     17.264  0.1326E-02  0.9256E-03  0.1195E+00  0.1179E+00
     17.465  0.6171E-03  0.1306E-02  0.1197E+00  0.1182E+00
     17.666  0.3364E-06  0.3732E-02  0.1197E+00  0.1189E+00
     17.867  0.1687E-03  0.2796E-02  0.1197E+00  0.1195E+00
     18.068  0.7423E-03  0.7767E-03  0.1199E+00  0.1196E+00
     18.270  0.8891E-03  0.1983E-03  0.1200E+00  0.1197E+00
     18.471  0.5227E-03  0.3940E-06  0.1201E+00  0.1197E+00
     18.672  0.9896E-03  0.7315E-03  0.1203E+00  0.1198E+00
     18.873  0.9688E-03  0.7356E-03  0.1205E+00  0.1200E+00
     19.074  0.7119E-03  0.3171E-06  0.1207E+00  0.1200E+00
     19.275  0.4199E-02  0.9628E-03  0.1215E+00  0.1202E+00
     19.476  0.6303E-02  0.1184E-02  0.1228E+00  0.1204E+00
     19.677  0.3681E-02  0.1163E-02  0.1235E+00  0.1206E+00
     19.878  0.2953E-02  0.2416E-02  0.1241E+00  0.1211E+00
     20.080  0.3729E-02  0.4079E-02  0.1249E+00  0.1219E+00
     20.281  0.3542E-02  0.4670E-02  0.1256E+00  0.1229E+00
     20.482  0.2391E-02  0.4158E-02  0.1261E+00  0.1237E+00
     20.683  0.3647E-02  0.4691E-02  0.1268E+00  0.1247E+00
     20.884  0.1968E-02  0.2598E-02  0.1272E+00  0.1252E+00
     21.085  0.3386E-02  0.4104E-02  0.1279E+00  0.1260E+00
     21.286  0.2783E-02  0.3596E-02  0.1284E+00  0.1267E+00
     21.487  0.3134E-02  0.2033E-02  0.1291E+00  0.1271E+00
     21.689  0.2230E-02  0.3843E-02  0.1295E+00  0.1279E+00
     21.890  0.4951E-02  0.2860E-02  0.1305E+00  0.1285E+00
     22.091  0.3114E-02  0.2762E-02  0.1311E+00  0.1290E+00
     22.292  0.5534E-02  0.2968E-02  0.1322E+00  0.1296E+00
     22.493  0.1596E-02  0.5074E-02  0.1326E+00  0.1307E+00
     22.694  0.5163E-02  0.5441E-02  0.1336E+00  0.1318E+00
     22.895  0.4655E-02  0.3757E-02  0.1345E+00  0.1325E+00
     23.096  0.2500E-02  0.1788E-02  0.1350E+00  0.1329E+00
     23.298  0.1921E-02  0.6597E-02  0.1354E+00  0.1342E+00
     23.499  0.2989E-02  0.2773E-02  0.1360E+00  0.1348E+00
     23.700  0.4621E-02  0.3301E-02  0.1370E+00  0.1354E+00
     23.901  0.3269E-02  0.2335E-02  0.1376E+00  0.1359E+00
     24.102  0.2750E-02  0.4124E-02  0.1382E+00  0.1367E+00
     24.303  0.1026E-02  0.3940E-02  0.1384E+00  0.1375E+00
     24.504  0.3860E-02  0.2492E-02  0.1392E+00  0.1380E+00
     24.705  0.2521E-02  0.1422E-02  0.1397E+00  0.1383E+00
     24.907  0.1267E-02  0.2962E-02  0.1399E+00  0.1389E+00
     25.108  0.4565E-02  0.3208E-02  0.1408E+00  0.1395E+00
     25.309  0.3709E-02  0.1515E-02  0.1416E+00  0.1398E+00
     25.510  0.2704E-02  0.3738E-02  0.1421E+00  0.1406E+00
     25.711  0.6597E-03  0.4784E-02  0.1423E+00  0.1416E+00
     25.912  0.5319E-02  0.2336E-02  0.1433E+00  0.1420E+00
     26.113  0.4680E-02  0.1434E-02  0.1443E+00  0.1423E+00
     26.314  0.1531E-02  0.5394E-02  0.1446E+00  0.1434E+00
     26.515  0.3033E-02  0.3979E-02  0.1452E+00  0.1442E+00
     26.717  0.3904E-02  0.1919E-02  0.1460E+00  0.1446E+00
     26.918  0.2540E-02  0.3323E-02  0.1465E+00  0.1453E+00
     27.119  0.6288E-02  0.4120E-02  0.1477E+00  0.1461E+00
     27.320  0.3892E-02  0.3826E-02  0.1485E+00  0.1468E+00
     27.521  0.6182E-02  0.5032E-02  0.1498E+00  0.1479E+00
     27.722  0.4287E-02  0.5085E-02  0.1506E+00  0.1489E+00
     27.923  0.2418E-02  0.4930E-02  0.1511E+00  0.1499E+00
     28.124  0.2073E-02  0.3758E-02  0.1515E+00  0.1506E+00
     28.326  0.6637E-02  0.3509E-02  0.1529E+00  0.1513E+00
     28.527  0.2627E-02  0.3355E-02  0.1534E+00  0.1520E+00
     28.728  0.2929E-02  0.6572E-02  0.1540E+00  0.1533E+00
     28.929  0.7487E-02  0.1110E-02  0.1555E+00  0.1536E+00
     29.130  0.2856E-02  0.6167E-02  0.1561E+00  0.1548E+00
     29.331  0.3944E-02  0.4252E-02  0.1569E+00  0.1557E+00
     29.532  0.4938E-02  0.3777E-02  0.1579E+00  0.1564E+00
     29.733  0.2870E-02  0.5997E-02  0.1584E+00  0.1576E+00
     29.935  0.4057E-02  0.2909E-02  0.1593E+00  0.1582E+00
     30.136  0.3381E-02  0.4146E-02  0.1599E+00  0.1590E+00
     30.337  0.3520E-02  0.3193E-02  0.1606E+00  0.1597E+00
     30.538  0.4949E-02  0.3434E-02  0.1616E+00  0.1604E+00
     30.739  0.3679E-02  0.4535E-02  0.1624E+00  0.1613E+00
     30.940  0.4773E-02  0.4782E-02  0.1633E+00  0.1622E+00
     31.141  0.2921E-02  0.5346E-02  0.1639E+00  0.1633E+00
     31.342  0.4838E-02  0.2762E-02  0.1649E+00  0.1639E+00
     31.543  0.5429E-02  0.3945E-02  0.1660E+00  0.1647E+00
     31.745  0.2736E-02  0.5178E-02  0.1665E+00  0.1657E+00
     31.946  0.4545E-02  0.4154E-02  0.1675E+00  0.1665E+00
     32.147  0.4007E-02  0.5118E-02  0.1683E+00  0.1676E+00
     32.348  0.5808E-02  0.4082E-02  0.1694E+00  0.1684E+00
     32.549  0.2314E-02  0.4400E-02  0.1699E+00  0.1693E+00
     32.750  0.2084E-02  0.2767E-02  0.1703E+00  0.1698E+00
     32.951  0.4220E-02  0.3691E-02  0.1712E+00  0.1706E+00
     33.152  0.3556E-02  0.3589E-02  0.1719E+00  0.1713E+00
     33.354  0.4592E-02  0.4022E-02  0.1728E+00  0.1721E+00
     33.555  0.3442E-02  0.4385E-02  0.1735E+00  0.1730E+00
     33.756  0.6625E-02  0.3992E-02  0.1748E+00  0.1738E+00
     33.957  0.3799E-02  0.4679E-02  0.1756E+00  0.1747E+00
     34.158  0.2853E-02  0.4935E-02  0.1762E+00  0.1757E+00
     34.359  0.3723E-02  0.3090E-02  0.1769E+00  0.1763E+00
     34.560  0.5611E-02  0.4714E-02  0.1780E+00  0.1773E+00
     34.761  0.3750E-02  0.4445E-02  0.1788E+00  0.1782E+00
     34.963  0.4560E-02  0.2502E-02  0.1797E+00  0.1787E+00
     35.164  0.4055E-02  0.5279E-02  0.1805E+00  0.1798E+00
     35.365  0.1582E-02  0.3700E-02  0.1808E+00  0.1805E+00
     35.566  0.2116E-02  0.1563E-02  0.1813E+00  0.1808E+00
     35.767  0.5992E-02  0.3277E-02  0.1825E+00  0.1815E+00
     35.968  0.2917E-02  0.5305E-02  0.1831E+00  0.1825E+00
     36.169  0.3159E-02  0.2811E-02  0.1837E+00  0.1831E+00
     36.370  0.8339E-02  0.3721E-02  0.1854E+00  0.1839E+00
     36.571  0.8359E-02  0.7261E-02  0.1871E+00  0.1853E+00
     36.773  0.4555E-02  0.6915E-02  0.1880E+00  0.1867E+00
     36.974  0.2401E-02  0.6759E-02  0.1885E+00  0.1881E+00
     37.175  0.6070E-02  0.2465E-02  0.1897E+00  0.1886E+00
     37.376  0.4896E-02  0.6854E-02  0.1907E+00  0.1899E+00
     37.577  0.3436E-02  0.2951E-02  0.1913E+00  0.1905E+00
     37.778  0.2749E-02  0.4014E-02  0.1919E+00  0.1913E+00
     37.979  0.1827E-02  0.2859E-02  0.1923E+00  0.1919E+00
     38.180  0.3227E-02  0.3615E-02  0.1929E+00  0.1926E+00
     38.382  0.3634E-02  0.1456E-02  0.1937E+00  0.1929E+00
     38.583  0.2895E-02  0.3735E-02  0.1942E+00  0.1937E+00
     38.784  0.5099E-02  0.4025E-02  0.1953E+00  0.1945E+00
     38.985  0.4327E-02  0.4014E-02  0.1961E+00  0.1953E+00
     39.186  0.3332E-02  0.3604E-02  0.1968E+00  0.1960E+00
     39.387  0.4752E-02  0.3124E-02  0.1978E+00  0.1967E+00
     39.588  0.3876E-02  0.5641E-02  0.1985E+00  0.1978E+00
     39.789  0.5292E-02  0.4011E-02  0.1996E+00  0.1986E+00
     39.991  0.3661E-02  0.4167E-02  0.2003E+00  0.1994E+00
     40.192  0.5435E-02  0.3629E-02  0.2014E+00  0.2002E+00
     40.393  0.2386E-02  0.5555E-02  0.2019E+00  0.2013E+00
     40.594  0.3102E-02  0.3114E-02  0.2025E+00  0.2019E+00
     40.795  0.7314E-02  0.4461E-02  0.2040E+00  0.2028E+00
     40.996  0.4045E-02  0.5119E-02  0.2048E+00  0.2038E+00
     41.197  0.5334E-02  0.3744E-02  0.2059E+00  0.2046E+00
     41.398  0.3164E-02  0.5685E-02  0.2065E+00  0.2057E+00
     41.600  0.5260E-02  0.5966E-02  0.2076E+00  0.2069E+00
     41.801  0.5775E-03  0.3644E-02  0.2077E+00  0.2077E+00
     42.002  0.3854E-02  0.6092E-03  0.2085E+00  0.2078E+00
     42.203  0.5624E-02  0.4907E-02  0.2096E+00  0.2088E+00
     42.404  0.6596E-02  0.2855E-02  0.2109E+00  0.2093E+00
     42.605  0.6494E-02  0.8275E-02  0.2122E+00  0.2110E+00
     42.806  0.4402E-02  0.5466E-02  0.2131E+00  0.2121E+00
     43.007  0.5402E-02  0.4499E-02  0.2142E+00  0.2130E+00
     43.208  0.3478E-02  0.6843E-02  0.2149E+00  0.2144E+00
     43.410  0.4225E-02  0.3103E-02  0.2158E+00  0.2150E+00
     43.611  0.4508E-02  0.3357E-02  0.2167E+00  0.2157E+00
     43.812  0.5020E-02  0.5391E-02  0.2177E+00  0.2168E+00
     44.013  0.1564E-02  0.4991E-02  0.2180E+00  0.2178E+00
     44.214  0.1884E-02  0.2093E-02  0.2184E+00  0.2182E+00
     44.415  0.4101E-02  0.1188E-02  0.2192E+00  0.2184E+00
     44.616  0.5347E-02  0.3577E-02  0.2203E+00  0.2192E+00
     44.817  0.5387E-02  0.4067E-02  0.2214E+00  0.2200E+00
     45.019  0.8693E-02  0.5801E-02  0.2231E+00  0.2211E+00
     45.220  0.8361E-02  0.6146E-02  0.2248E+00  0.2224E+00
     45.421  0.1882E-02  0.9644E-02  0.2252E+00  0.2243E+00
     45.622  0.6030E-02  0.3022E-02  0.2264E+00  0.2249E+00
     45.823  0.6745E-02  0.4465E-02  0.2277E+00  0.2258E+00
     46.024  0.4544E-02  0.5920E-02  0.2286E+00  0.2270E+00
     46.225  0.6063E-02  0.6207E-02  0.2299E+00  0.2283E+00
     46.426  0.9502E-02  0.6757E-02  0.2318E+00  0.2296E+00
     46.628  0.2422E-02  0.5120E-02  0.2323E+00  0.2307E+00
     46.829  0.4133E-02  0.5412E-02  0.2331E+00  0.2317E+00
     47.030  0.7206E-02  0.2658E-02  0.2345E+00  0.2323E+00
     47.231  0.9747E-02  0.3100E-02  0.2365E+00  0.2329E+00
     47.432  0.9829E-02  0.4886E-02  0.2385E+00  0.2339E+00
     47.633  0.1810E-01  0.5322E-02  0.2421E+00  0.2350E+00
     47.834  0.1580E-01  0.5237E-02  0.2453E+00  0.2360E+00
     48.035  0.2423E-01  0.7558E-02  0.2502E+00  0.2375E+00
     48.236  0.2127E-01  0.2825E-02  0.2544E+00  0.2381E+00
     48.438  0.1058E-01  0.2371E-02  0.2566E+00  0.2386E+00
     48.639  0.9538E-02  0.6404E-02  0.2585E+00  0.2399E+00
     48.840  0.7519E-02  0.6731E-02  0.2600E+00  0.2412E+00
     49.041  0.3036E-02  0.5831E-02  0.2606E+00  0.2424E+00
     49.242  0.5966E-02  0.5823E-02  0.2618E+00  0.2436E+00
     49.443  0.3522E-02  0.1717E-02  0.2625E+00  0.2439E+00
     49.644  0.2238E-02  0.6993E-02  0.2630E+00  0.2453E+00
     49.845  0.3302E-02  0.5500E-02  0.2636E+00  0.2464E+00
     50.047  0.4404E-02  0.4794E-02  0.2645E+00  0.2474E+00
     50.248  0.5642E-02  0.4727E-02  0.2657E+00  0.2483E+00
     50.449  0.5191E-02  0.7431E-02  0.2667E+00  0.2498E+00
     50.650  0.2960E-02  0.1039E-01  0.2673E+00  0.2519E+00
     50.851  0.3323E-02  0.9141E-02  0.2680E+00  0.2538E+00
     51.052  0.4250E-02  0.7487E-02  0.2688E+00  0.2553E+00
     51.253  0.3110E-02  0.1816E-01  0.2694E+00  0.2589E+00
     51.454  0.7442E-02  0.2337E-01  0.2709E+00  0.2636E+00
     51.656  0.3549E-02  0.1538E-01  0.2717E+00  0.2667E+00
     51.857  0.2618E-02  0.1320E-01  0.2722E+00  0.2694E+00
     52.058  0.3572E-02  0.4987E-02  0.2729E+00  0.2704E+00
     52.259  0.2305E-02  0.3030E-02  0.2734E+00  0.2710E+00
     52.460  0.2512E-02  0.4464E-02  0.2739E+00  0.2719E+00
     52.661  0.4288E-02  0.2756E-02  0.2747E+00  0.2724E+00
     52.862  0.1252E-02  0.5927E-02  0.2750E+00  0.2736E+00
     53.063  0.4735E-02  0.2643E-02  0.2759E+00  0.2741E+00
     53.264  0.1513E-02  0.5119E-02  0.2762E+00  0.2752E+00
     53.466  0.4349E-02  0.1897E-02  0.2771E+00  0.2756E+00
     53.667  0.9736E-03  0.4424E-02  0.2773E+00  0.2764E+00
     53.868  0.2455E-02  0.2608E-02  0.2778E+00  0.2770E+00
     54.069  0.1030E-02  0.3607E-02  0.2780E+00  0.2777E+00
     54.270  0.1980E-02  0.1633E-02  0.2784E+00  0.2780E+00
     54.471  0.1058E-02  0.8985E-03  0.2786E+00  0.2782E+00
     54.672  0.7509E-03  0.2271E-02  0.2788E+00  0.2787E+00
     54.873  0.1264E-02  0.5158E-03  0.2790E+00  0.2788E+00
     55.075  0.5808E-03  0.1347E-02  0.2791E+00  0.2790E+00
     55.276  0.9743E-03  0.1016E-02  0.2793E+00  0.2792E+00
     55.477  0.2301E-04  0.2459E-03  0.2793E+00  0.2793E+00
     55.678  0.5271E-03  0.2764E-03  0.2795E+00  0.2793E+00
     55.879  0.8652E-03  0.2574E-03  0.2796E+00  0.2794E+00
     56.080  0.4250E-03  0.1034E-02  0.2797E+00  0.2796E+00
     56.281  0.1249E-03  0.5210E-03  0.2797E+00  0.2797E+00
     56.482  0.7049E-03  0.2541E-05  0.2799E+00  0.2797E+00
     56.684  0.4414E-03  0.1160E-02  0.2800E+00  0.2799E+00
     56.885  0.1486E-03  0.2616E-03  0.2800E+00  0.2800E+00
     57.086  0.4848E-11  0.3815E-07  0.2800E+00  0.2800E+00
     57.287  0.0000E+00  0.0000E+00  0.2800E+00  0.2800E+00
     57.488  0.0000E+00  0.0000E+00  0.2800E+00  0.2800E+00
     57.689  0.0000E+00  0.0000E+00  0.2800E+00  0.2800E+00
     57.890  0.0000E+00  0.0000E+00  0.2800E+00  0.2800E+00
     58.091  0.0000E+00  0.0000E+00  0.2800E+00  0.2800E+00
     58.293  0.0000E+00  0.0000E+00  0.2800E+00  0.2800E+00
     58.494  0.0000E+00  0.0000E+00  0.2800E+00  0.2800E+00
     58.695  0.0000E+00  0.0000E+00  0.2800E+00  0.2800E+00
     58.896  0.0000E+00  0.0000E+00  0.2800E+00  0.2800E+00
     59.097  0.0000E+00  0.0000E+00  0.2800E+00  0.2800E+00
     59.298  0.0000E+00  0.0000E+00  0.2800E+00  0.2800E+00
     59.499  0.0000E+00  0.0000E+00  0.2800E+00  0.2800E+00
     59.49922946     -0.83690985  301     11.18763395      1.00000000
     -0.837  0.0000E+00  0.0000E+00  0.0000E+00  0.0000E+00  0.0000E+00  0.0000E+00  0.0000E+00  0.0000E+00  0.0000E+00  0.0000E+00  0.0000E+00  0.0000E+00  0.0000E+00  0.0000E+00  0.0000E+00  0.0000E+00  0.0000E+00  0.0000E+00
     -0.636  0.0000E+00  0.0000E+00  0.0000E+00  0.0000E+00  0.0000E+00  0.0000E+00  0.0000E+00  0.0000E+00  0.0000E+00  0.0000E+00  0.0000E+00  0.0000E+00  0.0000E+00  0.0000E+00  0.0000E+00  0.0000E+00  0.0000E+00  0.0000E+00
     -0.435  0.0000E+00  0.0000E+00  0.0000E+00  0.0000E+00  0.0000E+00  0.0000E+00  0.0000E+00  0.0000E+00  0.0000E+00  0.0000E+00  0.0000E+00  0.0000E+00  0.0000E+00  0.0000E+00  0.0000E+00  0.0000E+00  0.0000E+00  0.0000E+00
     -0.234  0.0000E+00  0.0000E+00  0.0000E+00  0.0000E+00  0.0000E+00  0.0000E+00  0.0000E+00  0.0000E+00  0.0000E+00  0.0000E+00  0.0000E+00  0.0000E+00  0.0000E+00  0.0000E+00  0.0000E+00  0.0000E+00  0.0000E+00  0.0000E+00
     -0.032  0.0000E+00  0.0000E+00  0.0000E+00  0.0000E+00  0.0000E+00  0.0000E+00  0.0000E+00  0.0000E+00  0.0000E+00  0.0000E+00  0.0000E+00  0.0000E+00  0.0000E+00  0.0000E+00  0.0000E+00  0.0000E+00  0.0000E+00  0.0000E+00
      0.169  0.0000E+00  0.0000E+00  0.0000E+00  0.0000E+00  0.0000E+00  0.0000E+00  0.0000E+00  0.0000E+00  0.0000E+00  0.0000E+00  0.0000E+00  0.0000E+00  0.0000E+00  0.0000E+00  0.0000E+00  0.0000E+00  0.0000E+00  0.0000E+00
      0.370  0.0000E+00  0.0000E+00  0.0000E+00  0.0000E+00  0.0000E+00  0.0000E+00  0.0000E+00  0.0000E+00  0.0000E+00  0.0000E+00  0.0000E+00  0.0000E+00  0.0000E+00  0.0000E+00  0.0000E+00  0.0000E+00  0.0000E+00  0.0000E+00
      0.571  0.0000E+00  0.0000E+00  0.0000E+00  0.0000E+00  0.0000E+00  0.0000E+00  0.0000E+00  0.0000E+00  0.0000E+00  0.0000E+00  0.0000E+00  0.0000E+00  0.0000E+00  0.0000E+00  0.0000E+00  0.0000E+00  0.0000E+00  0.0000E+00
      0.772  0.0000E+00  0.0000E+00  0.0000E+00  0.0000E+00  0.0000E+00  0.0000E+00  0.0000E+00  0.0000E+00  0.0000E+00  0.0000E+00  0.0000E+00  0.0000E+00  0.0000E+00  0.0000E+00  0.0000E+00  0.0000E+00  0.0000E+00  0.0000E+00
      0.973  0.0000E+00  0.0000E+00  0.0000E+00  0.0000E+00  0.0000E+00  0.0000E+00  0.0000E+00  0.0000E+00  0.0000E+00  0.0000E+00  0.0000E+00  0.0000E+00  0.0000E+00  0.0000E+00  0.0000E+00  0.0000E+00  0.0000E+00  0.0000E+00
      1.174  0.0000E+00  0.0000E+00  0.0000E+00  0.0000E+00  0.0000E+00  0.0000E+00  0.0000E+00  0.0000E+00  0.0000E+00  0.0000E+00  0.0000E+00  0.0000E+00  0.0000E+00  0.0000E+00  0.0000E+00  0.0000E+00  0.0000E+00  0.0000E+00
      1.375  0.0000E+00  0.0000E+00  0.0000E+00  0.0000E+00  0.0000E+00  0.0000E+00  0.0000E+00  0.0000E+00  0.0000E+00  0.0000E+00  0.0000E+00  0.0000E+00  0.0000E+00  0.0000E+00  0.0000E+00  0.0000E+00  0.0000E+00  0.0000E+00
      1.577  0.0000E+00  0.0000E+00  0.0000E+00  0.0000E+00  0.0000E+00  0.0000E+00  0.0000E+00  0.0000E+00  0.0000E+00  0.0000E+00  0.0000E+00  0.0000E+00  0.0000E+00  0.0000E+00  0.0000E+00  0.0000E+00  0.0000E+00  0.0000E+00
      1.778  0.2481E-06  0.2067E-06  0.6509E-23  0.1083E-21  0.2900E-20  0.3672E-30  0.6509E-23  0.1083E-21  0.3415E-20  0.2411E-19  0.2241E-31  0.2311E-31  0.1382E-11  0.1347E-11  0.2241E-31  0.2311E-31  0.3415E-20  0.2411E-19
      1.979  0.1665E-02  0.1663E-02  0.1611E-10  0.1071E-10  0.2206E-06  0.1825E-06  0.1611E-10  0.1071E-10  0.2840E-12  0.1432E-12  0.6042E-22  0.2353E-20  0.1169E-07  0.1217E-07  0.6042E-22  0.2353E-20  0.2840E-12  0.1432E-12
      2.180  0.1031E-01  0.1007E-01  0.8448E-04  0.8172E-04  0.5196E-04  0.5229E-04  0.8448E-04  0.8172E-04  0.1489E-05  0.1091E-05  0.2211E-09  0.1083E-09  0.2067E-05  0.1566E-05  0.2211E-09  0.1083E-09  0.1489E-05  0.1091E-05
      2.381  0.2126E-01  0.2133E-01  0.2589E-03  0.2608E-03  0.2925E-03  0.2905E-03  0.2589E-03  0.2608E-03  0.4690E-05  0.3550E-05  0.9320E-05  0.7088E-05  0.6332E-06  0.5505E-06  0.9320E-05  0.7088E-05  0.4690E-05  0.3550E-05
      2.582  0.3582E-02  0.3586E-02  0.1871E-04  0.1950E-04  0.1666E-03  0.1605E-03  0.1871E-04  0.1950E-04  0.5495E-06  0.3633E-06  0.5314E-06  0.5037E-06  0.1049E-04  0.6879E-05  0.5314E-06  0.5037E-06  0.5495E-06  0.3633E-06
      2.783  0.1902E-01  0.1678E-01  0.5382E-03  0.4864E-03  0.4561E-03  0.3631E-03  0.5382E-03  0.4864E-03  0.2682E-04  0.1826E-04  0.1833E-04  0.9979E-05  0.3598E-04  0.2374E-04  0.1833E-04  0.9979E-05  0.2682E-04  0.1826E-04
      2.984  0.3760E-01  0.3980E-01  0.1186E-02  0.1238E-02  0.1085E-02  0.1200E-02  0.1186E-02  0.1238E-02  0.7510E-04  0.5574E-04  0.5713E-04  0.4599E-04  0.7385E-04  0.5656E-04  0.5713E-04  0.4599E-04  0.7510E-04  0.5574E-04
      3.185  0.1753E-01  0.1792E-01  0.8597E-03  0.8900E-03  0.2904E-03  0.2934E-03  0.8597E-03  0.8900E-03  0.7838E-04  0.5730E-04  0.4781E-04  0.3487E-04  0.2857E-04  0.2138E-04  0.4781E-04  0.3487E-04  0.7838E-04  0.5730E-04
      3.387  0.2017E-01  0.2008E-01  0.6527E-03  0.6632E-03  0.1533E-02  0.1531E-02  0.6527E-03  0.6632E-03  0.4224E-04  0.3047E-04  0.1376E-03  0.1005E-03  0.9535E-04  0.6083E-04  0.1376E-03  0.1005E-03  0.4224E-04  0.3047E-04
      3.588  0.3986E-01  0.3161E-01  0.1774E-02  0.1343E-02  0.3185E-02  0.2701E-02  0.1774E-02  0.1343E-02  0.2166E-03  0.1049E-03  0.2766E-03  0.1815E-03  0.4607E-03  0.2189E-03  0.2766E-03  0.1815E-03  0.2166E-03  0.1049E-03
      3.789  0.4246E-01  0.4655E-01  0.3516E-02  0.3632E-02  0.8840E-03  0.1418E-02  0.3516E-02  0.3632E-02  0.5786E-03  0.4049E-03  0.2159E-03  0.1452E-03  0.3964E-03  0.3486E-03  0.2159E-03  0.1452E-03  0.5786E-03  0.4049E-03
      3.990  0.1222E-01  0.8814E-02  0.7497E-03  0.6852E-03  0.1207E-02  0.4338E-03  0.7497E-03  0.6852E-03  0.1461E-03  0.7727E-04  0.1696E-03  0.5811E-04  0.1941E-03  0.6220E-04  0.1696E-03  0.5811E-04  0.1461E-03  0.7727E-04
      4.191  0.6443E-01  0.4972E-01  0.5401E-02  0.4109E-02  0.4522E-02  0.3662E-02  0.5401E-02  0.4109E-02  0.1300E-02  0.6227E-03  0.1371E-02  0.6223E-03  0.6169E-03  0.3690E-03  0.1371E-02  0.6223E-03  0.1300E-02  0.6227E-03
      4.392  0.1231E-01  0.3636E-01  0.5790E-03  0.2662E-02  0.1896E-02  0.3803E-02  0.5790E-03  0.2662E-02  0.1068E-03  0.3784E-03  0.2855E-03  0.5839E-03  0.5074E-03  0.4324E-03  0.2855E-03  0.5839E-03  0.1068E-03  0.3784E-03
      4.593  0.2924E-01  0.2252E-01  0.1880E-02  0.1231E-02  0.4318E-02  0.4025E-02  0.1880E-02  0.1231E-02  0.7002E-03  0.2592E-03  0.8059E-03  0.3723E-03  0.2162E-02  0.1183E-02  0.8059E-03  0.3723E-03  0.7002E-03  0.2592E-03
      4.794  0.5357E-01  0.1855E-01  0.6754E-02  0.2388E-02  0.3978E-02  0.1045E-02  0.6754E-02  0.2388E-02  0.2425E-02  0.5090E-03  0.2051E-02  0.2655E-03  0.1296E-02  0.4238E-03  0.2051E-02  0.2655E-03  0.2425E-02  0.5090E-03
      4.996  0.5024E-01  0.7670E-01  0.5962E-02  0.9419E-02  0.4952E-02  0.7540E-02  0.5962E-02  0.9419E-02  0.3002E-02  0.2340E-02  0.1826E-02  0.1894E-02  0.3011E-02  0.1878E-02  0.1826E-02  0.1894E-02  0.3002E-02  0.2340E-02
      5.197  0.6235E-01  0.4186E-01  0.7658E-02  0.4982E-02  0.7218E-02  0.5680E-02  0.7658E-02  0.4982E-02  0.5148E-02  0.1367E-02  0.5475E-02  0.1616E-02  0.3875E-02  0.1378E-02  0.5475E-02  0.1616E-02  0.5148E-02  0.1367E-02
      5.398  0.2850E-01  0.4308E-01  0.3059E-02  0.6275E-02  0.3613E-02  0.4173E-02  0.3059E-02  0.6275E-02  0.4285E-02  0.2450E-02  0.2012E-02  0.2292E-02  0.8295E-02  0.1468E-02  0.2012E-02  0.2292E-02  0.4285E-02  0.2450E-02
      5.599  0.5567E-01  0.2468E-01  0.6628E-02  0.3043E-02  0.1100E-01  0.3569E-02  0.6628E-02  0.3043E-02  0.6122E-02  0.1866E-02  0.1257E-01  0.4450E-03  0.3674E-02  0.4091E-02  0.1257E-01  0.4450E-03  0.6122E-02  0.1866E-02
      5.800  0.9432E-01  0.5075E-01  0.1356E-01  0.6426E-02  0.9393E-02  0.1082E-01  0.1356E-01  0.6426E-02  0.3452E-01  0.2929E-02  0.2893E-01  0.5443E-02  0.3714E-01  0.2238E-02  0.2893E-01  0.5443E-02  0.3452E-01  0.2929E-02
      6.001  0.1004E+00  0.4560E-01  0.1304E-01  0.6798E-02  0.1020E-01  0.9223E-02  0.1304E-01  0.6798E-02  0.5685E-01  0.3360E-02  0.6852E-01  0.4762E-02  0.5193E-01  0.4254E-02  0.6852E-01  0.4762E-02  0.5685E-01  0.3360E-02
      6.202  0.6907E-01  0.6190E-01  0.9383E-02  0.1230E-01  0.1059E-01  0.7252E-02  0.9383E-02  0.1230E-01  0.6031E-01  0.9152E-02  0.7268E-01  0.4544E-02  0.5768E-01  0.9010E-02  0.7268E-01  0.4544E-02  0.6031E-01  0.9152E-02
      6.403  0.8334E-01  0.5973E-01  0.1353E-01  0.1221E-01  0.1922E-01  0.5681E-02  0.1353E-01  0.1221E-01  0.1295E+00  0.1178E-01  0.9464E-01  0.8612E-02  0.9759E-01  0.1359E-01  0.9464E-01  0.8612E-02  0.1295E+00  0.1178E-01
      6.605  0.6149E-01  0.7281E-01  0.1724E-01  0.1144E-01  0.1811E-01  0.1563E-01  0.1724E-01  0.1144E-01  0.1163E+00  0.2040E-01  0.1461E+00  0.2374E-01  0.1212E+00  0.1119E-01  0.1461E+00  0.2374E-01  0.1163E+00  0.2040E-01
      6.806  0.3787E-01  0.5677E-01  0.1453E-01  0.6647E-02  0.1724E-01  0.1276E-01  0.1453E-01  0.6647E-02  0.1053E+00  0.1733E-01  0.1344E+00  0.2563E-01  0.1315E+00  0.3479E-01  0.1344E+00  0.2563E-01  0.1053E+00  0.1733E-01
      7.007  0.2625E-01  0.6437E-01  0.1793E-01  0.8889E-02  0.1910E-01  0.8100E-02  0.1793E-01  0.8889E-02  0.8847E-01  0.4500E-01  0.1336E+00  0.4755E-01  0.1085E+00  0.3133E-01  0.1336E+00  0.4755E-01  0.8847E-01  0.4500E-01
      7.208  0.2134E-01  0.9936E-01  0.2300E-01  0.2360E-01  0.1635E-01  0.1836E-01  0.2300E-01  0.2360E-01  0.1312E+00  0.5613E-01  0.1226E+00  0.6391E-01  0.1960E+00  0.5023E-01  0.1226E+00  0.6391E-01  0.1312E+00  0.5613E-01
      7.409  0.1073E-01  0.5689E-01  0.2009E-01  0.1274E-01  0.1548E-01  0.1494E-01  0.2009E-01  0.1274E-01  0.1596E+00  0.6006E-01  0.1016E+00  0.5873E-01  0.1944E+00  0.5357E-01  0.1016E+00  0.5873E-01  0.1596E+00  0.6006E-01
      7.610  0.1012E-01  0.3961E-01  0.2405E-01  0.1123E-01  0.1436E-01  0.1634E-01  0.2405E-01  0.1123E-01  0.1930E+00  0.7768E-01  0.1057E+00  0.5953E-01  0.1763E+00  0.5460E-01  0.1057E+00  0.5953E-01  0.1930E+00  0.7768E-01
      7.811  0.1444E-01  0.4697E-01  0.2893E-01  0.2023E-01  0.2463E-01  0.2406E-01  0.2893E-01  0.2023E-01  0.2274E+00  0.1027E+00  0.1262E+00  0.1419E+00  0.1935E+00  0.1061E+00  0.1262E+00  0.1419E+00  0.2274E+00  0.1027E+00
      8.012  0.5660E-02  0.1890E-01  0.1174E-01  0.1432E-01  0.8974E-02  0.2138E-01  0.1174E-01  0.1432E-01  0.1068E+00  0.5917E-01  0.3937E-01  0.1522E+00  0.8719E-01  0.7017E-01  0.3937E-01  0.1522E+00  0.1068E+00  0.5917E-01
      8.214  0.4838E-02  0.1240E-01  0.1321E-01  0.2103E-01  0.1909E-01  0.1386E-01  0.1321E-01  0.2103E-01  0.1225E+00  0.9371E-01  0.1663E+00  0.7097E-01  0.1960E+00  0.1102E+00  0.1663E+00  0.7097E-01  0.1225E+00  0.9371E-01
      8.415  0.1278E-01  0.9724E-02  0.2165E-01  0.2631E-01  0.2277E-01  0.1530E-01  0.2165E-01  0.2631E-01  0.1689E+00  0.1121E+00  0.2787E+00  0.7422E-01  0.3296E+00  0.1426E+00  0.2787E+00  0.7422E-01  0.1689E+00  0.1121E+00
      8.616  0.1183E-01  0.1025E-01  0.1606E-01  0.2819E-01  0.2259E-01  0.1760E-01  0.1606E-01  0.2819E-01  0.2195E+00  0.1378E+00  0.2161E+00  0.8324E-01  0.2023E+00  0.1871E+00  0.2161E+00  0.8324E-01  0.2195E+00  0.1378E+00
      8.817  0.1257E-01  0.8705E-02  0.1493E-01  0.3389E-01  0.2641E-01  0.2210E-01  0.1493E-01  0.3389E-01  0.2633E+00  0.1501E+00  0.2886E+00  0.8500E-01  0.1734E+00  0.1679E+00  0.2886E+00  0.8500E-01  0.2633E+00  0.1501E+00
      9.018  0.1279E-01  0.1113E-01  0.1946E-01  0.4047E-01  0.2785E-01  0.2671E-01  0.1946E-01  0.4047E-01  0.2700E+00  0.2151E+00  0.2907E+00  0.9753E-01  0.2307E+00  0.1911E+00  0.2907E+00  0.9753E-01  0.2700E+00  0.2151E+00
      9.219  0.8604E-02  0.3723E-02  0.2225E-01  0.1382E-01  0.2029E-01  0.1371E-01  0.2225E-01  0.1382E-01  0.2126E+00  0.1067E+00  0.2123E+00  0.3236E-01  0.1755E+00  0.8653E-01  0.2123E+00  0.3236E-01  0.2126E+00  0.1067E+00