    2    2  100    2
  0.1063253E+02  0.2478352E-09  0.2478352E-09  0.3997699E-09  0.5000000E-15
  1.000000000000000E-004
  CAR 
 Co-hcc                                  
     18     95     24
 
  0.0000000E+00  0.0000000E+00  0.0000000E+00  0.8680556E-03
      1          1.516933        1.516358   1.000000   1.000000
      2          5.313768        6.263744   1.000000   1.000000
      3          7.904419        9.543701   1.000000   1.000000
      4          7.909276        9.547786   1.000000   1.000000
      5          7.909277        9.547787   1.000000   1.000000
      6          8.234515        9.928281   1.000000   1.000000
      7          8.234515        9.928281   1.000000   1.000000
      8          8.591119       10.346147   1.000000   0.999998
      9          8.591119       10.346147   1.000000   0.999998
     10          9.733958       10.430474   1.000000   0.988558
     11          9.733959       11.607589   1.000000   0.000000
     12         10.490245       11.607590   0.720650   0.000000
     13         17.107411       18.125919   0.000000   0.000000
     14         32.659846       32.384267   0.000000   0.000000
     15         35.398705       35.690441   0.000000   0.000000
     16         35.398706       35.753722   0.000000   0.000000
     17         35.842206       35.753722   0.000000   0.000000
     18         36.282796       36.054433   0.000000   0.000000
     19         36.732226       37.031684   0.000000   0.000000
     20         36.732226       37.031688   0.000000   0.000000
     21         41.300817       41.241152   0.000000   0.000000
     22         41.300817       41.241154   0.000000   0.000000
     23         42.308663       42.405344   0.000000   0.000000
     24         42.728841       42.557282   0.000000   0.000000
 
  0.8333333E-01  0.0000000E+00  0.0000000E+00  0.5208333E-02
      1          1.763416        1.763794   1.000000   1.000000
      2          5.460923        6.431080   1.000000   1.000000
      3          7.671169        9.263744   1.000000   1.000000
      4          8.025500        9.675525   1.000000   1.000000
      5          8.102864        9.709475   1.000000   1.000000
      6          8.188285        9.768046   1.000000   1.000000
      7          8.336751        9.865723   1.000000   1.000000
      8          8.437384       10.040536   1.000000   1.000000
      9          8.518045       10.260982   1.000000   1.000000
     10          8.949200       10.291496   1.000000   1.000000
     11          9.765323       11.644770   1.000000   0.000000
     12         11.595084       12.534104   0.000000   0.000000
     13         17.148867       18.144492   0.000000   0.000000
     14         30.858182       30.944426   0.000000   0.000000
     15         33.219832       33.287512   0.000000   0.000000
     16         33.242595       33.574633   0.000000   0.000000
     17         36.294694       36.081357   0.000000   0.000000
     18         36.743442       36.690931   0.000000   0.000000
     19         38.138926       38.018192   0.000000   0.000000
     20         39.112714       39.410874   0.000000   0.000000
     21         39.881739       40.118735   0.000000   0.000000
     22         40.795128       40.811155   0.000000   0.000000
     23         41.879450       42.156222   0.000000   0.000000
     24         42.111995       42.409131   0.000000   0.000000
 
  0.1666667E+00 -0.1387779E-16  0.0000000E+00  0.5208333E-02
      1          2.475769        2.483492   1.000000   1.000000
      2          5.823414        6.859087   1.000000   1.000000
      3          7.388900        8.815753   1.000000   1.000000
      4          7.716988        8.900829   1.000000   1.000000
      5          8.013322        9.639060   1.000000   1.000000
      6          8.337917       10.038085   1.000000   1.000000
      7          8.353628       10.052462   1.000000   1.000000
      8          8.416009       10.108346   1.000000   1.000000
      9          8.560513       10.128289   1.000000   1.000000
     10          8.624346       10.357283   1.000000   0.999993
     11          9.832337       11.723290   1.000000   0.000000
     12         13.213552       14.055854   0.000000   0.000000
     13         17.294221       18.218196   0.000000   0.000000
     14         27.041354       27.374349   0.000000   0.000000
     15         30.817476       31.128052   0.000000   0.000000
     16         32.266623       32.353001   0.000000   0.000000
     17         34.186981       34.197273   0.000000   0.000000
     18         36.402081       36.180575   0.000000   0.000000
     19         37.284149       37.422788   0.000000   0.000000
     20         39.511902       39.821224   0.000000   0.000000
     21         39.985252       40.095020   0.000000   0.000000
     22         40.748201       41.016639   0.000000   0.000000
     23         41.255745       41.532430   0.000000   0.000000
     24         42.884285       43.435446   0.000000   0.000000
 
  0.2500000E+00 -0.1387779E-16  0.0000000E+00  0.5208333E-02
      1          3.550441        3.595983   1.000000   1.000000
      2          6.108834        7.270863   1.000000   1.000000
      3          6.974293        8.104729   1.000000   1.000000
      4          7.220800        8.588201   1.000000   1.000000
      5          7.922607        9.488026   1.000000   1.000000
      6          8.121365        9.803544   1.000000   1.000000
      7          8.356554        9.910015   1.000000   1.000000
      8          8.828879       10.561327   1.000000   0.076971
      9          8.854755       10.569211   1.000000   0.049602
     10          9.037598       10.814406   1.000000   0.000000
     11          9.895857       11.796666   1.000000   0.000000
     12         15.037479       15.792935   0.000000   0.000000
     13         17.573236       18.370892   0.000000   0.000000
     14         23.313672       23.787158   0.000000   0.000000
     15         28.711812       28.984235   0.000000   0.000000
     16         30.819802       30.954223   0.000000   0.000000
     17         31.067545       31.285048   0.000000   0.000000
     18         35.068283       35.225603   0.000000   0.000000
     19         35.387366       35.537673   0.000000   0.000000
     20         39.267015       39.506877   0.000000   0.000000
     21         39.326472       39.656626   0.000000   0.000000
     22         40.105255       40.179926   0.000000   0.000000
     23         41.307432       41.495915   0.000000   0.000000
     24         44.209239       44.539048   0.000000   0.000000
 
  0.3333333E+00 -0.8326673E-16  0.0000000E+00  0.5208333E-02
      1          4.712959        4.918557   1.000000   1.000000
      2          6.033981        7.290012   1.000000   1.000000
      3          6.431819        7.601778   1.000000   1.000000
      4          7.341931        8.485400   1.000000   1.000000
      5          7.926492        9.580690   1.000000   1.000000
      6          8.052633        9.592889   1.000000   1.000000
      7          8.177538        9.695721   1.000000   1.000000
      8          9.334975       11.144837   1.000000   0.000000
      9          9.485711       11.231040   1.000000   0.000000
     10          9.557011       11.313163   1.000000   0.000000
     11          9.939582       11.846508   1.000000   0.000000
     12         17.022800       17.682127   0.000000   0.000000
     13         17.615504       18.259290   0.000000   0.000000
     14         20.447806       21.056847   0.000000   0.000000
     15         27.039228       27.258265   0.000000   0.000000
     16         27.732684       28.001606   0.000000   0.000000
     17         28.820941       29.194435   0.000000   0.000000
     18         33.559891       34.014394   0.000000   0.000000
     19         34.247812       34.098587   0.000000   0.000000
     20         37.452319       37.809149   0.000000   0.000000
     21         38.875764       39.106665   0.000000   0.000000
     22         40.908578       41.072815   0.000000   0.000000
     23         43.104715       43.269265   0.000000   0.000000
     24         45.221603       45.600207   0.000000   0.000000
 
  0.4166667E+00  0.0000000E+00  0.0000000E+00  0.5208333E-02
      1          5.458562        6.072562   1.000000   1.000000
      2          5.844120        7.072707   1.000000   1.000000
      3          6.106161        7.304612   1.000000   1.000000
      4          7.724646        8.543903   1.000000   1.000000
      5          7.793510        9.429121   1.000000   1.000000
      6          8.051527        9.540998   1.000000   1.000000
      7          8.261140        9.823920   1.000000   1.000000
      8          9.713342       11.579657   1.000000   0.000000
      9          9.856571       11.733960   1.000000   0.000000
     10          9.963127       11.873043   1.000000   0.000000
     11         10.701080       12.201038   0.000000   0.000000
     12         15.704497       16.474463   0.000000   0.000000
     13         19.073030       19.614005   0.000000   0.000000
     14         20.367104       20.874524   0.000000   0.000000
     15         25.034833       25.450407   0.000000   0.000000
     16         25.938566       26.104447   0.000000   0.000000
     17         26.200831       26.682622   0.000000   0.000000
     18         33.048787       33.307560   0.000000   0.000000
     19         33.466471       33.501046   0.000000   0.000000
     20         36.270107       36.590376   0.000000   0.000000
     21         38.617280       38.878949   0.000000   0.000000
     22         41.413495       41.658494   0.000000   0.000000
     23         45.552220       45.718939   0.000000   0.000000
     24         45.730294       46.131255   0.000000   0.000000
 
  0.5000000E+00 -0.2775558E-16  0.0000000E+00  0.2604167E-02
      1          5.686648        6.590372   1.000000   1.000000
      2          5.724261        6.886322   1.000000   1.000000
      3          5.997805        7.206574   1.000000   1.000000
      4          7.746482        8.646382   1.000000   1.000000
      5          7.980609        9.375606   1.000000   1.000000
      6          8.006154        9.484806   1.000000   1.000000
      7          8.339755        9.915504   1.000000   1.000000
      8          9.850098       11.735799   1.000000   0.000000
      9          9.970289       11.881051   1.000000   0.000000
     10         10.006563       11.908705   1.000000   0.000000
     11         11.887535       13.135171   0.000000   0.000000
     12         13.945262       14.929980   0.000000   0.000000
     13         20.411738       20.832679   0.000000   0.000000
     14         21.083058       21.468123   0.000000   0.000000
     15         23.483138       24.029122   0.000000   0.000000
     16         24.780737       25.345256   0.000000   0.000000
     17         25.550440       25.692772   0.000000   0.000000
     18         32.925081       33.030108   0.000000   0.000000
     19         33.194630       33.381787   0.000000   0.000000
     20         35.859078       36.164213   0.000000   0.000000
     21         38.533436       38.805461   0.000000   0.000000
     22         41.601853       41.879330   0.000000   0.000000
     23         45.866317       46.206049   0.000000   0.000000
     24         47.092459       48.064825   0.000000   0.000000
 
  0.8333333E-01  0.8333333E-01  0.0000000E+00  0.5208333E-02
      1          2.243752        2.247911   1.000000   1.000000
      2          5.721783        6.733352   1.000000   1.000000
      3          7.448344        8.989376   1.000000   1.000000
      4          7.968531        9.050710   1.000000   1.000000
      5          8.080470        9.722506   1.000000   1.000000
      6          8.263020        9.936289   1.000000   1.000000
      7          8.264700        9.948981   1.000000   1.000000
      8          8.310423       10.012163   1.000000   1.000000
      9          8.564202       10.279009   1.000000   1.000000
     10          8.682295       10.286773   1.000000   1.000000
     11          9.804550       11.690533   1.000000   0.000000
     12         12.759686       13.627220   0.000000   0.000000
     13         17.244290       18.192731   0.000000   0.000000
     14         28.778075       28.996958   0.000000   0.000000
     15         29.548223       29.891454   0.000000   0.000000
     16         34.790174       34.844987   0.000000   0.000000
     17         35.701300       35.595257   0.000000   0.000000
     18         35.868468       35.761749   0.000000   0.000000
     19         36.022818       36.070925   0.000000   0.000000
     20         39.233355       39.393939   0.000000   0.000000
     21         40.202791       40.643961   0.000000   0.000000
     22         40.784066       41.257553   0.000000   0.000000
     23         42.839228       42.957186   0.000000   0.000000
     24         43.301657       43.450458   0.000000   0.000000
 
  0.1666667E+00  0.8333333E-01  0.0000000E+00  0.1041667E-01
      1          3.146371        3.169026   1.000000   1.000000
      2          6.091711        7.191083   1.000000   1.000000
      3          7.169503        8.356530   1.000000   1.000000
      4          7.248427        8.619050   1.000000   1.000000
      5          7.960363        9.549571   1.000000   1.000000
      6          8.081871        9.734257   1.000000   1.000000
      7          8.523287       10.135705   1.000000   1.000000
      8          8.524784       10.233733   1.000000   1.000000
      9          8.695847       10.411717   1.000000   0.997491
     10          8.989887       10.739082   1.000000   0.000000
     11          9.853033       11.746701   1.000000   0.000000
     12         14.379541       15.170355   0.000000   0.000000
     13         17.478521       18.328649   0.000000   0.000000
     14         25.217201       25.611250   0.000000   0.000000
     15         27.456699       27.791740   0.000000   0.000000
     16         32.519003       32.551329   0.000000   0.000000
     17         33.540817       33.698814   0.000000   0.000000
     18         34.593675       34.610022   0.000000   0.000000
     19         36.228484       36.399297   0.000000   0.000000
     20         37.676045       38.133220   0.000000   0.000000
     21         39.423932       39.456503   0.000000   0.000000
     22         41.417226       41.883599   0.000000   0.000000
     23         42.888910       43.063136   0.000000   0.000000
     24         43.356048       43.565788   0.000000   0.000000
 
  0.2500000E+00  0.8333333E-01  0.0000000E+00  0.1041667E-01
      1          4.304066        4.407015   1.000000   1.000000
      2          6.206309        7.434799   1.000000   1.000000
      3          6.654777        7.809644   1.000000   1.000000
      4          7.101965        8.384446   1.000000   1.000000
      5          7.890156        9.502706   1.000000   1.000000
      6          7.976819        9.520336   1.000000   1.000000
      7          8.324574        9.906167   1.000000   1.000000
      8          8.934484       10.672068   1.000000   0.000003
      9          9.208893       10.987216   1.000000   0.000000
     10          9.569797       11.324005   1.000000   0.000000
     11          9.893951       11.793695   1.000000   0.000000
     12         16.245115       16.951308   0.000000   0.000000
     13         17.826609       18.527681   0.000000   0.000000
     14         21.748562       22.279798   0.000000   0.000000
     15         25.897159       26.220126   0.000000   0.000000
     16         29.346790       29.531601   0.000000   0.000000
     17         30.845619       31.162817   0.000000   0.000000
     18         33.321988       33.343732   0.000000   0.000000
     19         35.561777       35.892983   0.000000   0.000000
     20         36.006791       36.377959   0.000000   0.000000
     21         40.072073       40.089348   0.000000   0.000000
     22         42.771204       42.962255   0.000000   0.000000
     23         43.030941       43.233836   0.000000   0.000000
     24         44.031455       44.356983   0.000000   0.000000
 
  0.3333333E+00  0.8333333E-01  0.0000000E+00  0.1041667E-01
      1          5.306861        5.693097   1.000000   1.000000
      2          6.026186        7.282626   1.000000   1.000000
      3          6.250824        7.444793   1.000000   1.000000
      4          7.349743        8.377201   1.000000   1.000000
      5          7.765875        9.359935   1.000000   1.000000
      6          8.128685        9.665277   1.000000   1.000000
      7          8.175746        9.729063   1.000000   1.000000
      8          9.446406       11.235056   1.000000   0.000000
      9          9.646979       11.485465   1.000000   0.000000
     10          9.919435       11.822573   1.000000   0.000000
     11         10.394516       12.037488   0.999503   0.000000
     12         17.073859       17.727363   0.000000   0.000000
     13         18.270185       18.876117   0.000000   0.000000
     14         20.136576       20.713646   0.000000   0.000000
     15         24.684359       24.975588   0.000000   0.000000
     16         26.450470       26.782794   0.000000   0.000000
     17         27.867958       28.278056   0.000000   0.000000
     18         32.392236       32.393457   0.000000   0.000000
     19         34.873359       35.199647   0.000000   0.000000
     20         34.971724       35.355096   0.000000   0.000000
     21         40.134677       40.216504   0.000000   0.000000
     22         43.102557       43.318679   0.000000   0.000000
     23         44.678876       44.858498   0.000000   0.000000
     24         45.542914       45.933817   0.000000   0.000000
 
  0.4166667E+00  0.8333333E-01  0.0000000E+00  0.1041667E-01
      1          5.735489        6.562348   1.000000   1.000000
      2          5.867564        7.056630   1.000000   1.000000
      3          6.048203        7.264260   1.000000   1.000000
      4          7.716037        8.490237   1.000000   1.000000
      5          7.731406        9.321149   1.000000   1.000000
      6          7.999118        9.487921   1.000000   1.000000
      7          8.335290        9.914215   1.000000   1.000000
      8          9.811447       11.678256   1.000000   0.000000
      9          9.884013       11.758553   1.000000   0.000000
     10          9.930737       11.835214   1.000000   0.000000
     11         11.709958       13.017042   0.000000   0.000000
     12         14.722734       15.617811   0.000000   0.000000
     13         20.209026       20.684833   0.000000   0.000000
     14         20.987368       21.410872   0.000000   0.000000
     15         23.881583       24.183037   0.000000   0.000000
     16         24.081668       24.568765   0.000000   0.000000
     17         25.614271       26.070650   0.000000   0.000000
     18         31.907655       31.893848   0.000000   0.000000
     19         34.277397       34.594807   0.000000   0.000000
     20         34.668993       35.057370   0.000000   0.000000
     21         40.032637       40.150799   0.000000   0.000000
     22         43.322649       43.588981   0.000000   0.000000
     23         45.892975       46.256299   0.000000   0.000000
     24         47.084209       47.296814   0.000000   0.000000
 
  0.1666667E+00  0.1666667E+00  0.0000000E+00  0.5208333E-02
      1          4.159729        4.229818   1.000000   1.000000
      2          6.391095        7.567357   1.000000   1.000000
      3          6.772097        7.917702   1.000000   1.000000
      4          6.869083        8.243588   1.000000   1.000000
      5          7.818823        9.422398   1.000000   1.000000
      6          7.971819        9.522526   1.000000   1.000000
      7          8.419261       10.020303   1.000000   1.000000
      8          8.695732       10.430251   1.000000   0.988745
      9          9.197381       10.963061   1.000000   0.000000
     10          9.591061       11.337390   1.000000   0.000000
     11          9.854787       11.748349   1.000000   0.000000
     12         15.982007       16.708529   0.000000   0.000000
     13         17.871623       18.601673   0.000000   0.000000
     14         23.453747       23.880762   0.000000   0.000000
     15         23.948289       24.375693   0.000000   0.000000
     16         30.859906       30.863715   0.000000   0.000000
     17         31.755458       32.012437   0.000000   0.000000
     18         32.894989       33.209980   0.000000   0.000000
     19         33.680568       33.969580   0.000000   0.000000
     20         38.427421       38.693078   0.000000   0.000000
     21         40.454957       40.402800   0.000000   0.000000
     22         41.068388       41.533246   0.000000   0.000000
     23         44.529040       44.784600   0.000000   0.000000
     24         45.787929       45.948193   0.000000   0.000000
 
  0.2500000E+00  0.1666667E+00  0.0000000E+00  0.1041667E-01
      1          5.261257        5.490299   1.000000   1.000000
      2          6.370673        7.589463   1.000000   1.000000
      3          6.395235        7.627540   1.000000   1.000000
      4          6.848428        8.065299   1.000000   1.000000
      5          7.660836        9.223392   1.000000   1.000000
      6          8.121314        9.667295   1.000000   1.000000
      7          8.224138        9.788121   1.000000   1.000000
      8          9.009685       10.774950   1.000000   0.000000
      9          9.649345       11.477424   1.000000   0.000000
     10          9.852560       11.745660   1.000000   0.000000
     11         10.416063       12.079249   0.996351   0.000000
     12         17.867229       18.515868   0.000000   0.000000
     13         18.234346       18.826532   0.000000   0.000000
     14         20.620805       21.172312   0.000000   0.000000
     15         22.512001       22.927266   0.000000   0.000000
     16         28.217470       28.436380   0.000000   0.000000
     17         29.851964       30.232545   0.000000   0.000000
     18         30.330258       30.517964   0.000000   0.000000
     19         32.384096       32.725580   0.000000   0.000000
     20         38.584678       38.874986   0.000000   0.000000
     21         41.819201       41.742525   0.000000   0.000000
     22         43.364340       43.731574   0.000000   0.000000
     23         45.152082       45.376564   0.000000   0.000000
     24         45.757657       45.918242   0.000000   0.000000
 
  0.3333333E+00  0.1666667E+00  0.0000000E+00  0.1041667E-01
      1          5.937069        6.574127   1.000000   1.000000
      2          6.161232        7.394060   1.000000   1.000000
      3          6.166321        7.400531   1.000000   1.000000
      4          7.178594        8.145977   1.000000   1.000000
      5          7.617706        9.165922   1.000000   1.000000
      6          8.012696        9.528576   1.000000   1.000000
      7          8.328472        9.908241   1.000000   1.000000
      8          9.423921       11.229921   1.000000   0.000000
      9          9.849718       11.742119   1.000000   0.000000
     10          9.874181       11.743272   1.000000   0.000000
     11         11.626259       13.024964   0.000000   0.000000
     12         16.407782       17.125843   0.000000   0.000000
     13         19.910862       20.461484   0.000000   0.000000
     14         20.554927       21.042300   0.000000   0.000000
     15         21.742701       22.129771   0.000000   0.000000
     16         25.528494       25.914108   0.000000   0.000000
     17         26.952610       27.387461   0.000000   0.000000
     18         29.660019       29.814226   0.000000   0.000000
     19         31.624342       31.966333   0.000000   0.000000
     20         38.245655       38.560150   0.000000   0.000000
     21         42.627307       42.570914   0.000000   0.000000
     22         45.345621       45.592785   0.000000   0.000000
     23         46.595663       46.994730   0.000000   0.000000
     24         46.845369       46.998773   0.000000   0.000000
 
  0.4166667E+00  0.1666667E+00  0.0000000E+00  0.5208333E-02
      1          6.065484        7.010192   1.000000   1.000000
      2          6.082525        7.264763   1.000000   1.000000
      3          6.101323        7.329919   1.000000   1.000000
      4          7.407418        8.235098   1.000000   1.000000
      5          7.635168        9.202020   1.000000   1.000000
      6          7.902747        9.376400   1.000000   1.000000
      7          8.416814       10.015593   1.000000   1.000000
      8          9.703548       11.546605   1.000000   0.000000
      9          9.848416       11.726423   1.000000   0.000000
     10          9.853066       11.740474   1.000000   0.000000
     11         12.920727       13.972574   0.000000   0.000000
     12         14.529232       15.508726   0.000000   0.000000
     13         21.043811       21.445791   0.000000   0.000000
     14         21.364813       21.808315   0.000000   0.000000
     15         21.778593       22.156344   0.000000   0.000000
     16         23.855795       24.367234   0.000000   0.000000
     17         25.465287       25.948296   0.000000   0.000000
     18         29.441006       29.587805   0.000000   0.000000
     19         31.354369       31.692471   0.000000   0.000000
     20         38.111177       38.431565   0.000000   0.000000
     21         42.787187       42.752148   0.000000   0.000000
     22         46.051332       46.380110   0.000000   0.000000
     23         46.283562       46.607018   0.000000   0.000000
     24         47.166021       48.511548   0.000000   0.000000
 
  0.2500000E+00  0.2500000E+00  0.0000000E+00  0.5208333E-02
      1          6.079654        6.597172   1.000000   1.000000
      2          6.226083        7.468819   1.000000   1.000000
      3          6.575924        7.759676   1.000000   1.000000
      4          6.627825        7.788217   1.000000   1.000000
      5          7.552470        9.074869   1.000000   1.000000
      6          8.028356        9.553592   1.000000   1.000000
      7          8.332942        9.908887   1.000000   1.000000
      8          9.193286       10.987523   1.000000   0.000000
      9          9.808118       11.694742   1.000000   0.000000
     10          9.880857       11.748961   1.000000   0.000000
     11         11.632139       13.061285   0.000000   0.000000
     12         18.211091       18.747999   0.000000   0.000000
     13         18.945504       19.531143   0.000000   0.000000
     14         19.793061       20.372553   0.000000   0.000000
     15         21.190115       21.653682   0.000000   0.000000
     16         27.418694       27.659000   0.000000   0.000000
     17         27.484914       27.803529   0.000000   0.000000
     18         28.603427       29.013598   0.000000   0.000000
     19         29.509984       29.866022   0.000000   0.000000
     20         41.594800       41.792027   0.000000   0.000000
     21         43.434081       43.734127   0.000000   0.000000
     22         43.836304       43.877626   0.000000   0.000000
     23         46.199174       46.620997   0.000000   0.000000
     24         47.464674       48.296870   0.000000   0.000000
 
  0.3333333E+00  0.2500000E+00  0.0000000E+00  0.1041667E-01
      1          6.145351        7.280559   1.000000   1.000000
      2          6.351253        7.423422   1.000000   1.000000
      3          6.439435        7.599161   1.000000   1.000000
      4          6.956422        7.902924   1.000000   1.000000
      5          7.572859        9.080222   1.000000   1.000000
      6          7.825567        9.311123   1.000000   1.000000
      7          8.503795       10.110859   1.000000   1.000000
      8          9.472854       11.296585   1.000000   0.000000
      9          9.781882       11.664664   1.000000   0.000000
     10          9.825725       11.693423   1.000000   0.000000
     11         13.326115       14.392604   0.000000   0.000000
     12         15.941558       16.711713   0.000000   0.000000
     13         18.298324       18.851157   0.000000   0.000000
     14         21.850907       22.342618   0.000000   0.000000
     15         22.241290       22.635443   0.000000   0.000000
     16         24.905953       25.333140   0.000000   0.000000
     17         26.419994       26.858449   0.000000   0.000000
     18         27.084455       27.345194   0.000000   0.000000
     19         28.706239       29.075491   0.000000   0.000000
     20         42.023716       42.274824   0.000000   0.000000
     21         45.450309       45.334687   0.000000   0.000000
     22         45.696968       46.065515   0.000000   0.000000
     23         46.859747       48.256772   0.000000   0.000000
     24         47.571224       48.762926   0.000000   0.000000
 
  0.3333333E+00  0.3333333E+00  0.0000000E+00  0.1736111E-02
      1          6.150290        7.450907   1.000000   1.000000
      2          6.545802        7.614332   1.000000   1.000000
      3          6.545802        7.614332   1.000000   1.000000
      4          6.829941        7.820473   1.000000   1.000000
      5          7.651927        9.131841   1.000000   1.000000
      6          7.651927        9.131841   1.000000   1.000000
      7          8.602658       10.218721   1.000000   1.000000
      8          9.621795       11.466877   1.000000   0.000000
      9          9.621795       11.466877   1.000000   0.000000
     10          9.754732       11.633750   1.000000   0.000000
     11         15.085007       15.872868   0.000000   0.000000
     12         15.942228       16.707954   0.000000   0.000000
     13         15.942229       16.707956   0.000000   0.000000
     14         23.103857       23.472173   0.000000   0.000000
     15         23.866190       24.311892   0.000000   0.000000