    2    2  100    2
  0.1017687E+02  0.2442430E-09  0.2442430E-09  0.3939755E-09  0.5000000E-15
  1.000000000000000E-004
  CAR 
 Co-hcc                                  
     18     95     28
 
  0.0000000E+00  0.0000000E+00  0.0000000E+00  0.8680556E-03
      1          1.905642        1.907321   1.000000   1.000000
      2          5.755574        6.671591   1.000000   1.000000
      3          8.501761       10.087558   1.000000   1.000000
      4          8.514636       10.088103   1.000000   1.000000
      5          8.514637       10.088103   1.000000   1.000000
      6          8.865476       10.494013   1.000000   1.000000
      7          8.865476       10.494013   1.000000   1.000000
      8          9.241566       10.940521   1.000000   1.000000
      9          9.241566       10.940522   1.000000   1.000000
     10         10.465474       11.069359   1.000000   0.999589
     11         10.465475       12.282112   1.000000   0.000000
     12         11.119017       12.282113   0.973857   0.000000
     13         18.176903       19.171143   0.000000   0.000000
     14         33.680019       33.418282   0.000000   0.000000
     15         36.882073       36.859207   0.000000   0.000000
     16         36.882076       37.187221   0.000000   0.000000
     17         37.001124       37.231386   0.000000   0.000000
     18         37.406017       37.231387   0.000000   0.000000
     19         38.168900       38.463486   0.000000   0.000000
     20         38.168902       38.463493   0.000000   0.000000
     21         42.611166       42.561395   0.000000   0.000000
     22         42.611166       42.561399   0.000000   0.000000
     23         43.888941       43.782233   0.000000   0.000000
     24         44.089457       44.141076   0.000000   0.000000
     25         46.166933       46.365985   0.000000   0.000000
     26         46.166934       46.365987   0.000000   0.000000
     27         47.360604       47.964584   0.000000   0.000000
     28         47.408263       49.292629   0.000000   0.000000
 
  0.8333333E-01 -0.1387779E-16  0.0000000E+00  0.5208333E-02
      1          2.160625        2.163355   1.000000   1.000000
      2          5.909904        6.845190   1.000000   1.000000
      3          8.255517        9.787030   1.000000   1.000000
      4          8.639004       10.223846   1.000000   1.000000
      5          8.717956       10.296128   1.000000   1.000000
      6          8.814678       10.324777   1.000000   1.000000
      7          8.975327       10.427907   1.000000   1.000000
      8          9.071943       10.613867   1.000000   1.000000
      9          9.162752       10.849563   1.000000   1.000000
     10          9.596768       10.885761   1.000000   1.000000
     11         10.499610       12.322165   1.000000   0.000000
     12         12.323855       13.260982   0.000000   0.000000
     13         18.214917       19.187306   0.000000   0.000000
     14         32.028014       32.092105   0.000000   0.000000
     15         34.452373       34.536369   0.000000   0.000000
     16         34.636171       34.963418   0.000000   0.000000
     17         37.423380       37.221833   0.000000   0.000000
     18         37.990200       37.951727   0.000000   0.000000
     19         39.389123       39.275560   0.000000   0.000000
     20         40.626043       40.918174   0.000000   0.000000
     21         41.395041       41.628146   0.000000   0.000000
     22         42.146165       42.166237   0.000000   0.000000
     23         43.463185       43.740466   0.000000   0.000000
     24         43.743110       44.029602   0.000000   0.000000
     25         46.176628       46.854670   0.000000   0.000000
     26         46.367662       46.921423   0.000000   0.000000
     27         47.085349       47.221939   0.000000   0.000000
     28         47.521320       47.400652   0.000000   0.000000
 
  0.1666667E+00 -0.1387779E-16  0.0000000E+00  0.5208333E-02
      1          2.896148        2.906516   1.000000   1.000000
      2          6.289786        7.287533   1.000000   1.000000
      3          7.951260        9.343986   1.000000   1.000000
      4          8.288588        9.401527   1.000000   1.000000
      5          8.625875       10.188199   1.000000   1.000000
      6          8.968706       10.609004   1.000000   1.000000
      7          8.990183       10.627077   1.000000   1.000000
      8          9.052560       10.687374   1.000000   1.000000
      9          9.199214       10.712177   1.000000   1.000000
     10          9.283093       10.950394   1.000000   1.000000
     11         10.572294       12.406515   1.000000   0.000000
     12         14.015559       14.852576   0.000000   0.000000
     13         18.349583       19.253483   0.000000   0.000000
     14         28.229719       28.556272   0.000000   0.000000
     15         32.132686       32.439673   0.000000   0.000000
     16         33.459698       33.551149   0.000000   0.000000
     17         35.393726       35.406806   0.000000   0.000000
     18         37.536792       37.330683   0.000000   0.000000
     19         38.688671       38.790820   0.000000   0.000000
     20         41.077247       41.422415   0.000000   0.000000
     21         41.378947       41.490983   0.000000   0.000000
     22         42.329461       42.592325   0.000000   0.000000
     23         42.804115       43.065242   0.000000   0.000000
     24         44.696405       45.138381   0.000000   0.000000
     25         44.783682       45.251085   0.000000   0.000000
     26         46.787049       47.002538   0.000000   0.000000
     27         47.520954       49.261099   0.000000   0.000000
     28         48.130940       50.744735   0.000000   0.000000
 
  0.2500000E+00 -0.2775558E-16  0.0000000E+00  0.5208333E-02
      1          4.000716        4.049566   1.000000   1.000000
      2          6.587038        7.704201   1.000000   1.000000
      3          7.496875        8.582575   1.000000   1.000000
      4          7.767955        9.076036   1.000000   1.000000
      5          8.527024       10.031391   1.000000   1.000000
      6          8.736051       10.362165   1.000000   1.000000
      7          8.982954       10.481142   1.000000   1.000000
      8          9.500038       11.170701   1.000000   0.684005
      9          9.521802       11.174230   1.000000   0.647700
     10          9.726302       11.437149   1.000000   0.000000
     11         10.641150       12.485346   1.000000   0.000000
     12         15.906957       16.658742   0.000000   0.000000
     13         18.606534       19.389516   0.000000   0.000000
     14         24.454243       24.922589   0.000000   0.000000
     15         29.953456       30.223437   0.000000   0.000000
     16         31.992026       32.125817   0.000000   0.000000
     17         32.276013       32.494961   0.000000   0.000000
     18         36.538733       36.392561   0.000000   0.000000
     19         36.655591       37.110424   0.000000   0.000000
     20         40.750441       40.932834   0.000000   0.000000
     21         40.864098       41.236494   0.000000   0.000000
     22         41.534908       41.619085   0.000000   0.000000
     23         42.848298       43.034375   0.000000   0.000000
     24         45.730025       46.147150   0.000000   0.000000
     25         47.544803       48.115691   0.000000   0.000000
     26         47.722586       50.343311   0.000000   0.000000
     27         48.341168       51.450120   0.000000   0.000000
     28         50.847681       51.676225   0.000000   0.000000
 
  0.3333333E+00 -0.5551115E-16  0.0000000E+00  0.5208333E-02
      1          5.183339        5.392691   1.000000   1.000000
      2          6.504545        7.706218   1.000000   1.000000
      3          6.918169        8.040397   1.000000   1.000000
      4          7.894062        8.983742   1.000000   1.000000
      5          8.526848       10.125130   1.000000   1.000000
      6          8.663050       10.146346   1.000000   1.000000
      7          8.791525       10.255033   1.000000   1.000000
      8         10.044143       11.787486   1.000000   0.000000
      9         10.207350       11.886080   1.000000   0.000000
     10         10.269766       11.968561   1.000000   0.000000
     11         10.688473       12.538843   1.000000   0.000000
     12         17.954702       18.612955   0.000000   0.000000
     13         18.589013       19.227247   0.000000   0.000000
     14         21.567770       22.164978   0.000000   0.000000
     15         28.216532       28.434020   0.000000   0.000000
     16         28.868255       29.136395   0.000000   0.000000
     17         30.067195       30.434393   0.000000   0.000000
     18         35.089468       35.250082   0.000000   0.000000
     19         35.383758       35.541813   0.000000   0.000000
     20         38.987837       39.330562   0.000000   0.000000
     21         40.320025       40.552856   0.000000   0.000000
     22         42.404654       42.573170   0.000000   0.000000
     23         44.674063       44.835665   0.000000   0.000000
     24         46.593413       47.162989   0.000000   0.000000
     25         47.753596       51.123994   0.000000   0.000000
     26         48.716334       51.685011   0.000000   0.000000
     27         51.319960       51.835080   0.000000   0.000000
     28         53.812092       54.018316   0.000000   0.000000
 
  0.4166667E+00 -0.5551115E-16  0.0000000E+00  0.5208333E-02
      1          5.925960        6.533643   1.000000   1.000000
      2          6.305549        7.473721   1.000000   1.000000
      3          6.569746        7.717952   1.000000   1.000000
      4          8.294979        9.073629   1.000000   1.000000
      5          8.384132        9.963929   1.000000   1.000000
      6          8.656738       10.092213   1.000000   1.000000
      7          8.883983       10.391556   1.000000   1.000000
      8         10.451930       12.251776   1.000000   0.000000
      9         10.605842       12.416743   1.000000   0.000000
     10         10.713670       12.566997   1.000000   0.000000
     11         11.468396       12.919375   0.000000   0.000000
     12         16.625451       17.381784   0.000000   0.000000
     13         20.059414       20.602106   0.000000   0.000000
     14         21.465432       21.964573   0.000000   0.000000
     15         26.133606       26.548273   0.000000   0.000000
     16         27.068902       27.233647   0.000000   0.000000
     17         27.449763       27.923137   0.000000   0.000000
     18         34.542871       34.436175   0.000000   0.000000
     19         34.580106       34.994084   0.000000   0.000000
     20         37.756751       38.063905   0.000000   0.000000
     21         40.074574       40.338031   0.000000   0.000000
     22         42.959076       43.212892   0.000000   0.000000
     23         46.957095       47.348665   0.000000   0.000000
     24         47.187048       47.649684   0.000000   0.000000
     25         47.837796       51.242905   0.000000   0.000000
     26         48.899504       51.828125   0.000000   0.000000
     27         53.506031       53.811082   0.000000   0.000000
     28         54.744568       55.061259   0.000000   0.000000
 
  0.5000000E+00 -0.5551115E-16  0.0000000E+00  0.2604167E-02
      1          6.129977        7.037569   1.000000   1.000000
      2          6.202312        7.276189   1.000000   1.000000
      3          6.453671        7.611236   1.000000   1.000000
      4          8.333604        9.199264   1.000000   1.000000
      5          8.561180        9.906932   1.000000   1.000000
      6          8.608014       10.032931   1.000000   1.000000
      7          8.968182       10.488776   1.000000   1.000000
      8         10.599456       12.418779   1.000000   0.000000
      9         10.721379       12.575552   1.000000   0.000000
     10         10.767402       12.603044   1.000000   0.000000
     11         12.680574       13.901191   0.000000   0.000000
     12         14.843983       15.796152   0.000000   0.000000
     13         21.429087       21.854165   0.000000   0.000000
     14         22.160984       22.543746   0.000000   0.000000
     15         24.557337       25.101050   0.000000   0.000000
     16         26.032527       26.584869   0.000000   0.000000
     17         26.663321       26.804546   0.000000   0.000000
     18         34.299130       34.149253   0.000000   0.000000
     19         34.411722       34.867251   0.000000   0.000000
     20         37.327442       37.619688   0.000000   0.000000
     21         39.994796       40.268574   0.000000   0.000000
     22         43.161511       43.453205   0.000000   0.000000
     23         47.066169       47.705470   0.000000   0.000000
     24         47.772566       49.694012   0.000000   0.000000
     25         48.856044       51.156882   0.000000   0.000000
     26         49.656165       51.195338   0.000000   0.000000
     27         50.768425       51.798983   0.000000   0.000000
     28         56.144029       56.559603   0.000000   0.000000
 
  0.8333333E-01  0.8333333E-01  0.0000000E+00  0.5208333E-02
      1          2.656890        2.663578   1.000000   1.000000
      2          6.183488        7.158266   1.000000   1.000000
      3          8.015753        9.494927   1.000000   1.000000
      4          8.557036        9.595295   1.000000   1.000000
      5          8.699096       10.276368   1.000000   1.000000
      6          8.890380       10.500898   1.000000   1.000000
      7          8.893053       10.517459   1.000000   1.000000
      8          8.938528       10.583972   1.000000   1.000000
      9          9.217964       10.872446   1.000000   1.000000
     10          9.329768       10.875656   1.000000   1.000000
     11         10.542134       12.371304   1.000000   0.000000
     12         13.543091       14.405409   0.000000   0.000000
     13         18.303464       19.230770   0.000000   0.000000
     14         29.946493       30.158604   0.000000   0.000000
     15         30.843361       31.181148   0.000000   0.000000
     16         36.069930       36.132505   0.000000   0.000000
     17         36.892665       36.795441   0.000000   0.000000
     18         37.045396       36.942717   0.000000   0.000000
     19         37.293190       37.344191   0.000000   0.000000
     20         40.669206       40.824373   0.000000   0.000000
     21         41.868323       42.292774   0.000000   0.000000
     22         42.471231       42.924130   0.000000   0.000000
     23         44.335033       44.459178   0.000000   0.000000
     24         44.830493       44.988272   0.000000   0.000000
     25         45.160376       45.487187   0.000000   0.000000
     26         45.663325       46.149641   0.000000   0.000000
     27         46.265514       46.363798   0.000000   0.000000
     28         47.773845       51.049838   0.000000   0.000000
 
  0.1666667E+00  0.8333333E-01  0.0000000E+00  0.1041667E-01
      1          3.586870        3.612400   1.000000   1.000000
      2          6.571014        7.629200   1.000000   1.000000
      3          7.715026        8.853241   1.000000   1.000000
      4          7.788889        9.103208   1.000000   1.000000
      5          8.568899       10.094862   1.000000   1.000000
      6          8.692231       10.288404   1.000000   1.000000
      7          9.163275       10.720370   1.000000   1.000000
      8          9.169547       10.820612   1.000000   1.000000
      9          9.356680       11.007026   1.000000   1.000000
     10          9.673353       11.358026   1.000000   0.000001
     11         10.594698       12.431644   1.000000   0.000000
     12         15.226490       16.012891   0.000000   0.000000
     13         18.523340       19.356526   0.000000   0.000000
     14         26.378046       26.767377   0.000000   0.000000
     15         28.676292       29.009005   0.000000   0.000000
     16         33.690901       33.722580   0.000000   0.000000
     17         34.816986       34.973475   0.000000   0.000000
     18         35.815080       35.836870   0.000000   0.000000
     19         37.614704       37.771507   0.000000   0.000000
     20         39.295639       39.749002   0.000000   0.000000
     21         40.786312       40.827425   0.000000   0.000000
     22         43.110757       43.595844   0.000000   0.000000
     23         44.439596       44.615807   0.000000   0.000000
     24         44.919402       45.134149   0.000000   0.000000
     25         46.680925       47.185955   0.000000   0.000000
     26         47.933027       48.606747   0.000000   0.000000
     27         48.143005       48.836402   0.000000   0.000000
     28         48.529108       51.174474   0.000000   0.000000
 
  0.2500000E+00  0.8333333E-01  0.0000000E+00  0.1041667E-01
      1          4.772248        4.878496   1.000000   1.000000
      2          6.688356        7.867004   1.000000   1.000000
      3          7.155937        8.264286   1.000000   1.000000
      4          7.639840        8.865055   1.000000   1.000000
      5          8.486235       10.042985   1.000000   1.000000
      6          8.584204       10.067801   1.000000   1.000000
      7          8.950522       10.476830   1.000000   1.000000
      8          9.609303       11.287300   1.000000   0.002409
      9          9.907096       11.619764   1.000000   0.000000
     10         10.291917       11.982550   1.000000   0.000000
     11         10.638974       12.482051   1.000000   0.000000
     12         17.154908       17.858959   0.000000   0.000000
     13         18.839582       19.530197   0.000000   0.000000
     14         22.866751       23.391282   0.000000   0.000000
     15         27.067910       27.388860   0.000000   0.000000
     16         30.496176       30.679197   0.000000   0.000000
     17         32.148875       32.455892   0.000000   0.000000
     18         34.517272       34.548003   0.000000   0.000000
     19         37.050109       37.367049   0.000000   0.000000
     20         37.520013       37.894431   0.000000   0.000000
     21         41.431469       41.460833   0.000000   0.000000
     22         44.349122       44.538783   0.000000   0.000000
     23         44.616946       44.815374   0.000000   0.000000
     24         45.571184       45.966512   0.000000   0.000000
     25         47.320446       48.954697   0.000000   0.000000
     26         48.261786       51.471891   0.000000   0.000000
     27         49.468141       51.673796   0.000000   0.000000
     28         51.784948       51.827385   0.000000   0.000000
 
  0.3333333E+00  0.8333333E-01  0.0000000E+00  0.1041667E-01
      1          5.784715        6.170954   1.000000   1.000000
      2          6.496257        7.695773   1.000000   1.000000
      3          6.724274        7.868797   1.000000   1.000000
      4          7.901651        8.878902   1.000000   1.000000
      5          8.353270        9.892005   1.000000   1.000000
      6          8.740196       10.221901   1.000000   1.000000
      7          8.794237       10.290559   1.000000   1.000000
      8         10.160544       11.886503   1.000000   0.000000
      9         10.378262       12.151248   1.000000   0.000000
     10         10.666524       12.513024   1.000000   0.000000
     11         11.159193       12.744891   0.789429   0.000000
     12         18.020611       18.667911   0.000000   0.000000
     13         19.238393       19.844800   0.000000   0.000000
     14         21.246034       21.811606   0.000000   0.000000
     15         25.808443       26.097974   0.000000   0.000000
     16         27.568944       27.900400   0.000000   0.000000
     17         29.160288       29.559467   0.000000   0.000000
     18         33.554507       33.564107   0.000000   0.000000
     19         36.329761       36.645052   0.000000   0.000000
     20         36.470826       36.856530   0.000000   0.000000
     21         41.533101       41.625287   0.000000   0.000000
     22         44.670090       44.894775   0.000000   0.000000
     23         46.297715       46.472545   0.000000   0.000000
     24         46.841223       47.482596   0.000000   0.000000
     25         47.743049       50.747329   0.000000   0.000000
     26         48.745032       51.754062   0.000000   0.000000
     27         51.254902       51.954210   0.000000   0.000000
     28         55.124489       55.190646   0.000000   0.000000
 
  0.4166667E+00  0.8333333E-01  0.0000000E+00  0.1041667E-01
      1          6.200581        7.016057   1.000000   1.000000
      2          6.338222        7.459113   1.000000   1.000000
      3          6.507297        7.672069   1.000000   1.000000
      4          8.300552        9.026239   1.000000   1.000000
      5          8.301538        9.850275   1.000000   1.000000
      6          8.600815       10.035513   1.000000   1.000000
      7          8.963926       10.486785   1.000000   1.000000
      8         10.555493       12.357769   1.000000   0.000000
      9         10.633993       12.442960   1.000000   0.000000
     10         10.678710       12.526549   1.000000   0.000000
     11         12.509692       13.780445   0.000000   0.000000
     12         15.633910       16.506588   0.000000   0.000000
     13         21.225344       21.704391   0.000000   0.000000
     14         22.073800       22.492512   0.000000   0.000000
     15         24.974793       25.272400   0.000000   0.000000
     16         25.166225       25.652048   0.000000   0.000000
     17         26.890912       27.336333   0.000000   0.000000
     18         33.050475       33.044110   0.000000   0.000000
     19         35.715459       36.021457   0.000000   0.000000
     20         36.157855       36.548750   0.000000   0.000000
     21         41.451654       41.579570   0.000000   0.000000
     22         44.898474       45.186369   0.000000   0.000000
     23         47.103724       47.761453   0.000000   0.000000
     24         47.850587       48.951283   0.000000   0.000000
     25         48.818521       51.223297   0.000000   0.000000
     26         48.892234       51.818352   0.000000   0.000000
     27         52.164063       52.499775   0.000000   0.000000
     28         54.093702       54.361773   0.000000   0.000000
 
  0.1666667E+00  0.1666667E+00  0.0000000E+00  0.5208333E-02
      1          4.627656        4.700389   1.000000   1.000000
      2          6.885561        8.015927   1.000000   1.000000
      3          7.281043        8.380676   1.000000   1.000000
      4          7.392133        8.706188   1.000000   1.000000
      5          8.409215        9.956788   1.000000   1.000000
      6          8.580465       10.068897   1.000000   1.000000
      7          9.052764       10.598512   1.000000   1.000000
      8          9.352524       11.029460   1.000000   0.999996
      9          9.893852       11.594436   1.000000   0.000000
     10         10.314811       11.997247   1.000000   0.000000
     11         10.596550       12.433362   1.000000   0.000000
     12         16.884647       17.608647   0.000000   0.000000
     13         18.899692       19.617540   0.000000   0.000000
     14         24.550965       24.976045   0.000000   0.000000
     15         25.131489       25.553233   0.000000   0.000000
     16         31.960171       31.971226   0.000000   0.000000
     17         33.029993       33.286684   0.000000   0.000000
     18         34.256961       34.561761   0.000000   0.000000
     19         35.083545       35.357603   0.000000   0.000000
     20         39.938256       40.208690   0.000000   0.000000
     21         41.796769       41.750758   0.000000   0.000000
     22         42.731564       43.225104   0.000000   0.000000
     23         46.095700       46.405064   0.000000   0.000000
     24         47.394214       47.556086   0.000000   0.000000
     25         47.729280       47.816306   0.000000   0.000000
     26         47.820786       49.141211   0.000000   0.000000
     27         48.040140       50.602260   0.000000   0.000000
     28         49.123987       51.583869   0.000000   0.000000
 
  0.2500000E+00  0.1666667E+00  0.0000000E+00  0.1041667E-01
      1          5.752019        5.981152   1.000000   1.000000
      2          6.861617        8.023519   1.000000   1.000000
      3          6.878229        8.065574   1.000000   1.000000
      4          7.369296        8.530777   1.000000   1.000000
      5          8.239520        9.746556   1.000000   1.000000
      6          8.738252       10.223717   1.000000   1.000000
      7          8.843345       10.352307   1.000000   1.000000
      8          9.689467       11.396059   1.000000   0.000000
      9         10.379040       12.142843   1.000000   0.000000
     10         10.594124       12.430456   1.000000   0.000000
     11         11.186637       12.789568   0.511252   0.000000
     12         18.827659       19.476093   0.000000   0.000000
     13         19.221598       19.808280   0.000000   0.000000
     14         21.708375       22.251616   0.000000   0.000000
     15         23.631350       24.041763   0.000000   0.000000
     16         29.345178       29.559090   0.000000   0.000000
     17         31.189918       31.559905   0.000000   0.000000
     18         31.521124       31.721736   0.000000   0.000000
     19         33.786055       34.115851   0.000000   0.000000
     20         40.105686       40.400043   0.000000   0.000000
     21         43.178281       43.110761   0.000000   0.000000
     22         44.948747       45.371334   0.000000   0.000000
     23         46.695374       47.000261   0.000000   0.000000
     24         47.383906       47.542825   0.000000   0.000000
     25         47.728551       49.939247   0.000000   0.000000
     26         48.221205       51.028856   0.000000   0.000000
     27         50.402148       51.584030   0.000000   0.000000
     28         50.958513       51.678699   0.000000   0.000000
 
  0.3333333E+00  0.1666667E+00  0.0000000E+00  0.1041667E-01
      1          6.430195        7.055094   1.000000   1.000000
      2          6.627360        7.808684   1.000000   1.000000
      3          6.644963        7.822491   1.000000   1.000000
      4          7.720699        8.640969   1.000000   1.000000
      5          8.193721        9.686894   1.000000   1.000000
      6          8.615989       10.077321   1.000000   1.000000
      7          8.958113       10.478578   1.000000   1.000000
      8         10.135491       11.880346   1.000000   0.000000
      9         10.591180       12.426832   1.000000   0.000000
     10         10.621038       12.426985   1.000000   0.000000
     11         12.439649       13.792488   0.000000   0.000000
     12         17.351026       18.057878   0.000000   0.000000
     13         20.926019       21.478804   0.000000   0.000000
     14         21.613959       22.094842   0.000000   0.000000
     15         22.838853       23.221191   0.000000   0.000000
     16         26.637135       27.021792   0.000000   0.000000
     17         28.253723       28.677015   0.000000   0.000000
     18         30.812713       30.975244   0.000000   0.000000
     19         33.010945       33.341888   0.000000   0.000000
     20         39.769532       40.089578   0.000000   0.000000
     21         44.016747       43.972924   0.000000   0.000000
     22         46.741778       47.139226   0.000000   0.000000
     23         47.574863       48.640935   0.000000   0.000000
     24         48.069893       48.643924   0.000000   0.000000
     25         48.501575       50.198436   0.000000   0.000000
     26         48.895786       51.566071   0.000000   0.000000
     27         50.506774       51.745122   0.000000   0.000000
     28         54.017099       54.067032   0.000000   0.000000
 
  0.4166667E+00  0.1666667E+00  0.0000000E+00  0.5208333E-02
      1          6.534392        7.472642   1.000000   1.000000
      2          6.542819        7.679761   1.000000   1.000000
      3          6.597330        7.737679   1.000000   1.000000
      4          7.961647        8.753967   1.000000   1.000000
      5          8.212870        9.724251   1.000000   1.000000
      6          8.497535        9.917488   1.000000   1.000000
      7          9.052131       10.592108   1.000000   1.000000
      8         10.437799       12.217243   1.000000   0.000000
      9         10.589684       12.409364   1.000000   0.000000
     10         10.597581       12.424966   1.000000   0.000000
     11         13.746080       14.775478   0.000000   0.000000
     12         15.456861       16.408373   0.000000   0.000000
     13         22.079604       22.478337   0.000000   0.000000
     14         22.416915       22.864375   0.000000   0.000000
     15         22.867205       23.241766   0.000000   0.000000
     16         24.936940       25.447683   0.000000   0.000000
     17         26.763251       27.231127   0.000000   0.000000
     18         30.582912       30.736634   0.000000   0.000000
     19         32.733341       33.060473   0.000000   0.000000
     20         39.634552       39.960668   0.000000   0.000000
     21         44.194039       44.171608   0.000000   0.000000
     22         47.223515       47.873507   0.000000   0.000000
     23         47.502180       48.243274   0.000000   0.000000
     24         48.279823       50.141046   0.000000   0.000000
     25         48.830320       51.201497   0.000000   0.000000
     26         50.118246       51.709941   0.000000   0.000000
     27         52.181143       52.609060   0.000000   0.000000
     28         53.205300       53.383762   0.000000   0.000000
 
  0.2500000E+00  0.2500000E+00  0.0000000E+00  0.5208333E-02
      1          6.587143        7.095962   1.000000   1.000000