 vasp.6.3.2 27Jun22 (build Aug 12 2022 00:53:59) complex                        
  
 executed on               tv2STD date 2024.11.30  17:13:10
 running   24 mpi-ranks, with    1 threads/rank
 distrk:  each k-point on   24 cores,    1 groups
 distr:  one band on NCORE=   6 cores,    4 groups


--------------------------------------------------------------------------------------------------------


 INCAR:
   SYSTEM = Co-hcc
   NWRITE = 2    write-flag
   ISTART = 0    job   : 0-new, 1-cont, 2-samecut
   ICHARG = 2    charge: 0-wave, 1-file, 2-atom, >10-const
   INIWAV = 1    electr: 0-lowe 1-rand  2-diag
   ENCUT = 400     energy cutoff in eV
   PREC = Accurate      normal | accurate
   ADDGRID = .FALSE.  (use fine grid)
   NELM = 100     number of ELM steps
   EDIFF = 1E-06    energy stopping-criterion for ELM
   LREAL = .FALSE.      real-space projection (.FALSE., .TRUE., On, Auto)
   ALGO = Normal     Normal, Fast, Very_Fast
   LWAVE = .TRUE.
   LCHARG = .TRUE.
   NSW = 100       max number of geometry steps
   IBRION = 2     ionic relax: 0-MD, 1-quasi-Newton, 2-CG, 3-Damped MD
   EDIFFG = -0.02  force (eV/A) stopping-criterion for geometry steps
   ISIF = 2     (1:force\=y stress\=trace only ions\=y shape\=n volume\=n)
   ISYM = 1     (1-use symmetry, 0-no symmetry)
   ISMEAR = 0     (-1-Fermi, 1-Methfessel/Paxton)
   SIGMA = 0.05   broadening in eV
   LORBIT = 11 magnetic props in OUTCAR should be on
   NPAR = 4
   ISPIN = 2
   MAGMOM = 2*3

 POTCAR:    PAW_PBE Co 02Aug2007                  
 POTCAR:    PAW_PBE Co 02Aug2007                  
   SHA256 =  0e690c60710354995174544f52f9f2c30879afabeffe3b3fbd4001cb294e56d4 Co/POTCAR             
   COPYR  = (c) Copyright 02Aug2007 Georg Kresse                                                    
   COPYR  = This file is part of the software VASP. Any use, copying, and all other rights are regul
   COPYR  = If you do not have a valid VASP license, you may not use, copy or distribute this file. 
   VRHFIN =Co: d8 s1                                                                                
   LEXCH  = PE                                                                                      
   EATOM  =   813.3670 eV,   59.7808 Ry                                                             
                                                                                                    
   TITEL  = PAW_PBE Co 02Aug2007                                                                    
   LULTRA =        F    use ultrasoft PP ?                                                          
   IUNSCR =        1    unscreen: 0-lin 1-nonlin 2-no                                               
   RPACOR =    2.000    partial core radius                                                         
   POMASS =   58.933; ZVAL   =    9.000    mass and valenz                                          
   RCORE  =    2.300    outmost cutoff radius                                                       
   RWIGS  =    2.460; RWIGS  =    1.302    wigner-seitz radius (au A)                               
   ENMAX  =  267.968; ENMIN  =  200.976 eV                                                          
   RCLOC  =    1.203    cutoff for local pot                                                        
   LCOR   =        T    correct aug charges                                                         
   LPAW   =        T    paw PP                                                                      
   EAUG   =  477.818                                                                                
   DEXC   =    0.000                                                                                
   RMAX   =    2.360    core radius for proj-oper                                                   
   RAUG   =    1.300    factor for augmentation sphere                                              
   RDEP   =    2.393    radius for radial grids                                                     
   RDEPT  =    1.864    core radius for aug-charge                                                  
                                                                                                    
   Atomic configuration                                                                             
    9 entries                                                                                       
     n  l   j            E        occ.                                                              
     1  0  0.50     -7587.6674   2.0000                                                             
     2  0  0.50      -893.6084   2.0000                                                             
     2  1  1.50      -764.5805   6.0000                                                             
     3  0  0.50       -97.5973   2.0000                                                             
     3  1  1.50       -60.9648   6.0000                                                             
     3  2  2.50        -4.2382   8.0000                                                             
     4  0  0.50        -4.3746   1.0000                                                             
     4  1  1.50        -4.0817   0.0000                                                             
     4  3  2.50        -1.3606   0.0000                                                             
   Description                                                                                      
     l       E           TYP  RCUT    TYP  RCUT                                                     
     2     -4.2382362     23  2.300                                                                 
     2     -5.5988188     23  2.300                                                                 
     0     -4.3745797     23  2.300                                                                 
     0      5.7660125     23  2.300                                                                 
     1     -2.7211652     23  2.300                                                                 
     1     16.9860234     23  2.300                                                                 
  local pseudopotential read in
  partial core-charges read in
  partial kinetic energy density read in
  atomic valenz-charges read in
  non local Contribution for L=           2  read in
    real space projection operators read in
  non local Contribution for L=           2  read in
    real space projection operators read in
  non local Contribution for L=           0  read in
    real space projection operators read in
  non local Contribution for L=           0  read in
    real space projection operators read in
  non local Contribution for L=           1  read in
    real space projection operators read in
  non local Contribution for L=           1  read in
    real space projection operators read in
    PAW grid and wavefunctions read in
 
   number of l-projection  operators is LMAX  =           6
   number of lm-projection operators is LMMAX =          18
 
  PAW_PBE Co 02Aug2007                  :
 energy of atom  1       EATOM= -813.3670
 kinetic energy error for atom=    0.0093 (will be added to EATOM!!)
 
 
 POSCAR: Co
  positions in cartesian coordinates
  No initial velocities read in
 exchange correlation table for  LEXCH =        8
   RHO(1)=    0.500       N(1)  =     2000
   RHO(2)=  100.500       N(2)  =     4000
 


--------------------------------------------------------------------------------------------------------


 ion  position               nearest neighbor table
   1  0.000  0.000  0.000-   2 2.46   2 2.46   2 2.46   2 2.46   2 2.46   2 2.46
   2  0.333  0.667  0.500-   1 2.46   1 2.46   1 2.46   1 2.46   1 2.46   1 2.46
 
  LATTYP: Found a hexagonal cell.
 ALAT       =     2.4785400729
 C/A-ratio  =     1.6179593006
  
  Lattice vectors:
  
 A1 = (   2.4785400729,   0.0000000000,   0.0000000000)
 A2 = (  -1.2392700364,   2.1464786674,   0.0000000000)
 A3 = (   0.0000000000,   0.0000000000,   4.0101769628)


Analysis of symmetry for initial positions (statically):
=====================================================================
 Subroutine PRICEL returns:
 Original cell was already a primitive cell.
 

 Routine SETGRP: Setting up the symmetry group for a 
 hexagonal supercell.


 Subroutine GETGRP returns: Found 24 space group operations
 (whereof 12 operations were pure point group operations)
 out of a pool of 24 trial point group operations.


The static configuration has the point symmetry D_3h.
 The point group associated with its full space group is D_6h.


Analysis of symmetry for dynamics (positions and initial velocities):
=====================================================================
 Subroutine PRICEL returns:
 Original cell was already a primitive cell.
 

 Routine SETGRP: Setting up the symmetry group for a 
 hexagonal supercell.


 Subroutine GETGRP returns: Found 24 space group operations
 (whereof 12 operations were pure point group operations)
 out of a pool of 24 trial point group operations.


The dynamic configuration has the point symmetry D_3h.
 The point group associated with its full space group is D_6h.


Analysis of structural, dynamic, and magnetic symmetry:
=====================================================================
 Subroutine PRICEL returns:
 Original cell was already a primitive cell.
 

 Routine SETGRP: Setting up the symmetry group for a 
 hexagonal supercell.


 Subroutine GETGRP returns: Found 24 space group operations
 (whereof 12 operations were pure point group operations)
 out of a pool of 24 trial point group operations.


The overall configuration has the point symmetry D_3h.
 The point group associated with its full space group is D_6h.


 Subroutine INISYM returns: Found 24 space group operations
 (whereof 12 operations are pure point group operations),
 and found     1 'primitive' translations


----------------------------------------------------------------------------------------

                                     Primitive cell                                     

  volume of cell :      21.3347

  direct lattice vectors                    reciprocal lattice vectors
     2.478540073  0.000000000  0.000000000     0.403463317  0.232939655  0.000000000
    -1.239270036  2.146478667  0.000000000     0.000000000  0.465879310  0.000000000
     0.000000000  0.000000000  4.010176963     0.000000000  0.000000000  0.249365554

  length of vectors
     2.478540073  2.478540073  4.010176963     0.465879310  0.465879310  0.249365554

  position of ions in fractional coordinates (direct lattice)
     0.000000000  0.000000000  0.000000000
     0.333333333  0.666666667  0.500000000

  ion indices of the primitive-cell ions
   primitive index   ion index
                 1           1
                 2           2

----------------------------------------------------------------------------------------

 
 
 KPOINTS: Automatic mesh                          

Automatic generation of k-mesh.
 Grid dimensions read from file:
 generate k-points for:   10   10    8

 Generating k-lattice:

  Cartesian coordinates                     Fractional coordinates (reciprocal lattice)
     0.040346332  0.023293965  0.000000000     0.100000000  0.000000000  0.000000000
     0.000000000  0.046587931  0.000000000     0.000000000  0.100000000  0.000000000
     0.000000000  0.000000000  0.031170694     0.000000000  0.000000000  0.125000000

  Length of vectors
     0.046587931  0.046587931  0.031170694

  Shift w.r.t. Gamma in fractional coordinates (k-lattice)
     0.000000000  0.000000000  0.000000000

 
 Subroutine IBZKPT returns following result:
 ===========================================
 
 Found     70 irreducible k-points:
 
 Following reciprocal coordinates:
            Coordinates               Weight
  0.000000  0.000000  0.000000      1.000000
  0.100000 -0.000000  0.000000      6.000000
  0.200000 -0.000000  0.000000      6.000000
  0.300000  0.000000  0.000000      6.000000
  0.400000  0.000000  0.000000      6.000000
  0.500000  0.000000  0.000000      3.000000
  0.100000  0.100000  0.000000      6.000000
  0.200000  0.100000  0.000000     12.000000
  0.300000  0.100000  0.000000     12.000000
  0.400000  0.100000  0.000000     12.000000
  0.200000  0.200000  0.000000      6.000000
  0.300000  0.200000  0.000000     12.000000
  0.400000  0.200000  0.000000      6.000000
  0.300000  0.300000  0.000000      6.000000
  0.000000  0.000000  0.125000      2.000000
  0.100000 -0.000000  0.125000     12.000000
  0.200000 -0.000000  0.125000     12.000000
  0.300000  0.000000  0.125000     12.000000
  0.400000  0.000000  0.125000     12.000000
  0.500000  0.000000  0.125000      6.000000
  0.100000  0.100000  0.125000     12.000000
  0.200000  0.100000  0.125000     24.000000
  0.300000  0.100000  0.125000     24.000000
  0.400000  0.100000  0.125000     24.000000
  0.200000  0.200000  0.125000     12.000000
  0.300000  0.200000  0.125000     24.000000
  0.400000  0.200000  0.125000     12.000000
  0.300000  0.300000  0.125000     12.000000
  0.000000  0.000000  0.250000      2.000000
  0.100000 -0.000000  0.250000     12.000000
  0.200000 -0.000000  0.250000     12.000000
  0.300000  0.000000  0.250000     12.000000
  0.400000  0.000000  0.250000     12.000000
  0.500000  0.000000  0.250000      6.000000
  0.100000  0.100000  0.250000     12.000000
  0.200000  0.100000  0.250000     24.000000
  0.300000  0.100000  0.250000     24.000000
  0.400000  0.100000  0.250000     24.000000
  0.200000  0.200000  0.250000     12.000000
  0.300000  0.200000  0.250000     24.000000
  0.400000  0.200000  0.250000     12.000000
  0.300000  0.300000  0.250000     12.000000
  0.000000  0.000000  0.375000      2.000000
  0.100000 -0.000000  0.375000     12.000000
  0.200000 -0.000000  0.375000     12.000000
  0.300000  0.000000  0.375000     12.000000
  0.400000  0.000000  0.375000     12.000000
  0.500000  0.000000  0.375000      6.000000
  0.100000  0.100000  0.375000     12.000000
  0.200000  0.100000  0.375000     24.000000
  0.300000  0.100000  0.375000     24.000000
  0.400000  0.100000  0.375000     24.000000
  0.200000  0.200000  0.375000     12.000000
  0.300000  0.200000  0.375000     24.000000
  0.400000  0.200000  0.375000     12.000000
  0.300000  0.300000  0.375000     12.000000
  0.000000  0.000000  0.500000      1.000000
  0.100000 -0.000000  0.500000      6.000000
  0.200000 -0.000000  0.500000      6.000000
  0.300000  0.000000  0.500000      6.000000
  0.400000  0.000000  0.500000      6.000000
  0.500000  0.000000  0.500000      3.000000
  0.100000  0.100000  0.500000      6.000000
  0.200000  0.100000  0.500000     12.000000
  0.300000  0.100000  0.500000     12.000000
  0.400000  0.100000  0.500000     12.000000
  0.200000  0.200000  0.500000      6.000000
  0.300000  0.200000  0.500000     12.000000
  0.400000  0.200000  0.500000      6.000000
  0.300000  0.300000  0.500000      6.000000
 
 Following cartesian coordinates:
            Coordinates               Weight
  0.000000  0.000000  0.000000      1.000000
  0.040346  0.023294  0.000000      6.000000
  0.080693  0.046588  0.000000      6.000000
  0.121039  0.069882  0.000000      6.000000
  0.161385  0.093176  0.000000      6.000000
  0.201732  0.116470  0.000000      3.000000
  0.040346  0.069882  0.000000      6.000000
  0.080693  0.093176  0.000000     12.000000
  0.121039  0.116470  0.000000     12.000000
  0.161385  0.139764  0.000000     12.000000
  0.080693  0.139764  0.000000      6.000000
  0.121039  0.163058  0.000000     12.000000
  0.161385  0.186352  0.000000      6.000000
  0.121039  0.209646  0.000000      6.000000
  0.000000  0.000000  0.031171      2.000000
  0.040346  0.023294  0.031171     12.000000
  0.080693  0.046588  0.031171     12.000000
  0.121039  0.069882  0.031171     12.000000
  0.161385  0.093176  0.031171     12.000000
  0.201732  0.116470  0.031171      6.000000
  0.040346  0.069882  0.031171     12.000000
  0.080693  0.093176  0.031171     24.000000
  0.121039  0.116470  0.031171     24.000000
  0.161385  0.139764  0.031171     24.000000
  0.080693  0.139764  0.031171     12.000000
  0.121039  0.163058  0.031171     24.000000
  0.161385  0.186352  0.031171     12.000000
  0.121039  0.209646  0.031171     12.000000
  0.000000  0.000000  0.062341      2.000000
  0.040346  0.023294  0.062341     12.000000
  0.080693  0.046588  0.062341     12.000000
  0.121039  0.069882  0.062341     12.000000
  0.161385  0.093176  0.062341     12.000000
  0.201732  0.116470  0.062341      6.000000
  0.040346  0.069882  0.062341     12.000000
  0.080693  0.093176  0.062341     24.000000
  0.121039  0.116470  0.062341     24.000000
  0.161385  0.139764  0.062341     24.000000
  0.080693  0.139764  0.062341     12.000000
  0.121039  0.163058  0.062341     24.000000
  0.161385  0.186352  0.062341     12.000000
  0.121039  0.209646  0.062341     12.000000
  0.000000  0.000000  0.093512      2.000000
  0.040346  0.023294  0.093512     12.000000
  0.080693  0.046588  0.093512     12.000000
  0.121039  0.069882  0.093512     12.000000
  0.161385  0.093176  0.093512     12.000000
  0.201732  0.116470  0.093512      6.000000
  0.040346  0.069882  0.093512     12.000000
  0.080693  0.093176  0.093512     24.000000
  0.121039  0.116470  0.093512     24.000000
  0.161385  0.139764  0.093512     24.000000
  0.080693  0.139764  0.093512     12.000000
  0.121039  0.163058  0.093512     24.000000
  0.161385  0.186352  0.093512     12.000000
  0.121039  0.209646  0.093512     12.000000
  0.000000  0.000000  0.124683      1.000000
  0.040346  0.023294  0.124683      6.000000
  0.080693  0.046588  0.124683      6.000000
  0.121039  0.069882  0.124683      6.000000
  0.161385  0.093176  0.124683      6.000000
  0.201732  0.116470  0.124683      3.000000
  0.040346  0.069882  0.124683      6.000000
  0.080693  0.093176  0.124683     12.000000
  0.121039  0.116470  0.124683     12.000000
  0.161385  0.139764  0.124683     12.000000
  0.080693  0.139764  0.124683      6.000000
  0.121039  0.163058  0.124683     12.000000
  0.161385  0.186352  0.124683      6.000000
  0.121039  0.209646  0.124683      6.000000
 


--------------------------------------------------------------------------------------------------------




 Dimension of arrays:
   k-points           NKPTS =     70   k-points in BZ     NKDIM =     70   number of bands    NBANDS=     16
   number of dos      NEDOS =    301   number of ions     NIONS =      2
   non local maximal  LDIM  =      6   non local SUM 2l+1 LMDIM =     18
   total plane-waves  NPLWV =   7168
   max r-space proj   IRMAX =      1   max aug-charges    IRDMAX=  13449
   dimension x,y,z NGX =    16 NGY =   16 NGZ =   28
   dimension x,y,z NGXF=    32 NGYF=   32 NGZF=   56
   support grid    NGXF=    32 NGYF=   32 NGZF=   56
   ions per type =               2
   NGX,Y,Z   is equivalent  to a cutoff of  10.73, 10.73, 11.61 a.u.
   NGXF,Y,Z  is equivalent  to a cutoff of  21.46, 21.46, 23.22 a.u.

 SYSTEM =  Co-hcc                                  
 POSCAR =  Co                                      

 Startparameter for this run:
   NWRITE =      2    write-flag & timer
   PREC   = accura    normal or accurate (medium, high low for compatibility)
   ISTART =      0    job   : 0-new  1-cont  2-samecut
   ICHARG =      2    charge: 1-file 2-atom 10-const
   ISPIN  =      2    spin polarized calculation?
   LNONCOLLINEAR =      F non collinear calculations
   LSORBIT =      F    spin-orbit coupling
   INIWAV =      1    electr: 0-lowe 1-rand  2-diag
   LASPH  =      F    aspherical Exc in radial PAW
 Electronic Relaxation 1
   ENCUT  =  400.0 eV  29.40 Ry    5.42 a.u.   4.04  4.04  6.54*2*pi/ulx,y,z
   ENINI  =  400.0     initial cutoff
   ENAUG  =  477.8 eV  augmentation charge cutoff
   NELM   =    100;   NELMIN=  2; NELMDL= -5     # of ELM steps 
   EDIFF  = 0.1E-05   stopping-criterion for ELM
   LREAL  =      F    real-space projection
   NLSPLINE    = F    spline interpolate recip. space projectors
   LCOMPAT=      F    compatible to vasp.4.4
   GGA_COMPAT  = T    GGA compatible to vasp.4.4-vasp.4.6
   LMAXPAW     = -100 max onsite density
   LMAXMIX     =    2 max onsite mixed and CHGCAR
   VOSKOWN=      0    Vosko Wilk Nusair interpolation
   ROPT   =    0.00000
 Ionic relaxation
   EDIFFG = -.2E-01   stopping-criterion for IOM
   NSW    =    100    number of steps for IOM
   NBLOCK =      1;   KBLOCK =    100    inner block; outer block 
   IBRION =      2    ionic relax: 0-MD 1-quasi-New 2-CG
   NFREE  =      1    steps in history (QN), initial steepest desc. (CG)
   ISIF   =      2    stress and relaxation
   IWAVPR =     11    prediction:  0-non 1-charg 2-wave 3-comb
   ISYM   =      1    0-nonsym 1-usesym 2-fastsym
   LCORR  =      T    Harris-Foulkes like correction to forces

   POTIM  = 0.5000    time-step for ionic-motion
   TEIN   =    0.0    initial temperature
   TEBEG  =    0.0;   TEEND  =   0.0 temperature during run
   SMASS  =  -3.00    Nose mass-parameter (am)
   estimated Nose-frequenzy (Omega)   =  0.10E-29 period in steps = 0.13E+47 mass=  -0.140E-27a.u.
   SCALEE = 1.0000    scale energy and forces
   NPACO  =    256;   APACO  = 10.0  distance and # of slots for P.C.
   PSTRESS=    0.0 pullay stress

  Mass of Ions in am
   POMASS =  58.93
  Ionic Valenz
   ZVAL   =   9.00
  Atomic Wigner-Seitz radii
   RWIGS  =  -1.00
  virtual crystal weights 
   VCA    =   1.00
   NELECT =      18.0000    total number of electrons
   NUPDOWN=      -1.0000    fix difference up-down

 DOS related values:
   EMIN   =  10.00;   EMAX   =-10.00  energy-range for DOS
   EFERMI =   0.00
   ISMEAR =     0;   SIGMA  =   0.05  broadening in eV -4-tet -1-fermi 0-gaus

 Electronic relaxation 2 (details)
   IALGO  =     38    algorithm
   LDIAG  =      T    sub-space diagonalisation (order eigenvalues)
   LSUBROT=      F    optimize rotation matrix (better conditioning)
   TURBO    =      0    0=normal 1=particle mesh
   IRESTART =      0    0=no restart 2=restart with 2 vectors
   NREBOOT  =      0    no. of reboots
   NMIN     =      0    reboot dimension
   EREF     =   0.00    reference energy to select bands
   IMIX   =      4    mixing-type and parameters
     AMIX     =   0.40;   BMIX     =  1.00
     AMIX_MAG =   1.60;   BMIX_MAG =  1.00
     AMIN     =   0.10
     WC   =   100.;   INIMIX=   1;  MIXPRE=   1;  MAXMIX= -45

 Intra band minimization:
   WEIMIN = 0.0010     energy-eigenvalue tresh-hold
   EBREAK =  0.16E-07  absolut break condition
   DEPER  =   0.30     relativ break condition  

   TIME   =   0.40     timestep for ELM

  volume/ion in A,a.u.               =      10.67        71.99
  Fermi-wavevector in a.u.,A,eV,Ry     =   1.546929  2.923271 32.558586  2.392989
  Thomas-Fermi vector in A             =   2.652095
 
 Write flags
   LWAVE        =      T    write WAVECAR
   LDOWNSAMPLE  =      F    k-point downsampling of WAVECAR
   LCHARG       =      T    write CHGCAR
   LVTOT        =      F    write LOCPOT, total local potential
   LVHAR        =      F    write LOCPOT, Hartree potential only
   LELF         =      F    write electronic localiz. function (ELF)
   LORBIT       =     11    0 simple, 1 ext, 2 COOP (PROOUT), +10 PAW based schemes


 Dipole corrections
   LMONO  =      F    monopole corrections only (constant potential shift)
   LDIPOL =      F    correct potential (dipole corrections)
   IDIPOL =      0    1-x, 2-y, 3-z, 4-all directions 
   EPSILON=  1.0000000 bulk dielectric constant

 Exchange correlation treatment:
   GGA     =    --    GGA type
   LEXCH   =     8    internal setting for exchange type
   LIBXC   =     F    Libxc                    
   VOSKOWN =     0    Vosko Wilk Nusair interpolation
   LHFCALC =     F    Hartree Fock is set to
   LHFONE  =     F    Hartree Fock one center treatment
   AEXX    =    0.0000 exact exchange contribution

 Linear response parameters
   LEPSILON=     F    determine dielectric tensor
   LRPA    =     F    only Hartree local field effects (RPA)
   LNABLA  =     F    use nabla operator in PAW spheres
   LVEL    =     F    velocity operator in full k-point grid
   CSHIFT  =0.1000    complex shift for real part using Kramers Kronig
   OMEGAMAX=  -1.0    maximum frequency
   DEG_THRESHOLD= 0.2000000E-02 threshold for treating states as degnerate
   RTIME   =   -0.100 relaxation time in fs
  (WPLASMAI=    0.000 imaginary part of plasma frequency in eV, 0.658/RTIME)
   DFIELD  = 0.0000000 0.0000000 0.0000000 field for delta impulse in time
 
  Optional k-point grid parameters
   LKPOINTS_OPT  =     F    use optional k-point grid
   KPOINTS_OPT_MODE=     1    mode for optional k-point grid
 
 Orbital magnetization related:
   ORBITALMAG=     F  switch on orbital magnetization
   LCHIMAG   =     F  perturbation theory with respect to B field
   DQ        =  0.001000  dq finite difference perturbation B field
   LLRAUG    =     F  two centre corrections for induced B field



--------------------------------------------------------------------------------------------------------


 conjugate gradient relaxation of ions
 charge density and potential will be updated during run
 spin polarized calculation
 Variant of blocked Davidson
 Davidson routine will perform the subspace rotation
 perform sub-space diagonalisation
    after iterative eigenvector-optimisation
 modified Broyden-mixing scheme, WC =      100.0
 initial mixing is a Kerker type mixing with AMIX =  0.4000 and BMIX =      1.0000
 Hartree-type preconditioning will be used
 using additional bands            7
 reciprocal scheme for non local part
 use partial core corrections
 calculate Harris-corrections to forces 
   (improved forces if not selfconsistent)
 use gradient corrections 
 use of overlap-Matrix (Vanderbilt PP)
 Gauss-broadening in eV      SIGMA  =   0.05


--------------------------------------------------------------------------------------------------------


  energy-cutoff  :      400.00
  volume of cell :       21.33
      direct lattice vectors                 reciprocal lattice vectors
     2.478540073  0.000000000  0.000000000     0.403463317  0.232939655  0.000000000
    -1.239270036  2.146478667  0.000000000     0.000000000  0.465879310  0.000000000
     0.000000000  0.000000000  4.010176963     0.000000000  0.000000000  0.249365554

  length of vectors
     2.478540073  2.478540073  4.010176963     0.465879310  0.465879310  0.249365554


 
 k-points in units of 2pi/SCALE and weight: Automatic mesh                          
   0.00000000  0.00000000  0.00000000       0.001
   0.04034633  0.02329397  0.00000000       0.007
   0.08069266  0.04658793  0.00000000       0.007
   0.12103900  0.06988190  0.00000000       0.007
   0.16138533  0.09317586  0.00000000       0.007
   0.20173166  0.11646983  0.00000000       0.004
   0.04034633  0.06988190  0.00000000       0.007
   0.08069266  0.09317586  0.00000000       0.015
   0.12103900  0.11646983  0.00000000       0.015
   0.16138533  0.13976379  0.00000000       0.015
   0.08069266  0.13976379  0.00000000       0.007
   0.12103900  0.16305776  0.00000000       0.015
   0.16138533  0.18635172  0.00000000       0.007
   0.12103900  0.20964569  0.00000000       0.007
   0.00000000  0.00000000  0.03117069       0.003
   0.04034633  0.02329397  0.03117069       0.015
   0.08069266  0.04658793  0.03117069       0.015
   0.12103900  0.06988190  0.03117069       0.015
   0.16138533  0.09317586  0.03117069       0.015
   0.20173166  0.11646983  0.03117069       0.007
   0.04034633  0.06988190  0.03117069       0.015
   0.08069266  0.09317586  0.03117069       0.030
   0.12103900  0.11646983  0.03117069       0.030
   0.16138533  0.13976379  0.03117069       0.030
   0.08069266  0.13976379  0.03117069       0.015
   0.12103900  0.16305776  0.03117069       0.030
   0.16138533  0.18635172  0.03117069       0.015
   0.12103900  0.20964569  0.03117069       0.015
   0.00000000  0.00000000  0.06234139       0.003
   0.04034633  0.02329397  0.06234139       0.015
   0.08069266  0.04658793  0.06234139       0.015
   0.12103900  0.06988190  0.06234139       0.015
   0.16138533  0.09317586  0.06234139       0.015
   0.20173166  0.11646983  0.06234139       0.007
   0.04034633  0.06988190  0.06234139       0.015
   0.08069266  0.09317586  0.06234139       0.030
   0.12103900  0.11646983  0.06234139       0.030
   0.16138533  0.13976379  0.06234139       0.030
   0.08069266  0.13976379  0.06234139       0.015
   0.12103900  0.16305776  0.06234139       0.030
   0.16138533  0.18635172  0.06234139       0.015
   0.12103900  0.20964569  0.06234139       0.015
   0.00000000  0.00000000  0.09351208       0.003
   0.04034633  0.02329397  0.09351208       0.015
   0.08069266  0.04658793  0.09351208       0.015
   0.12103900  0.06988190  0.09351208       0.015
   0.16138533  0.09317586  0.09351208       0.015
   0.20173166  0.11646983  0.09351208       0.007
   0.04034633  0.06988190  0.09351208       0.015
   0.08069266  0.09317586  0.09351208       0.030
   0.12103900  0.11646983  0.09351208       0.030
   0.16138533  0.13976379  0.09351208       0.030
   0.08069266  0.13976379  0.09351208       0.015
   0.12103900  0.16305776  0.09351208       0.030
   0.16138533  0.18635172  0.09351208       0.015
   0.12103900  0.20964569  0.09351208       0.015
   0.00000000  0.00000000  0.12468278       0.001
   0.04034633  0.02329397  0.12468278       0.007
   0.08069266  0.04658793  0.12468278       0.007
   0.12103900  0.06988190  0.12468278       0.007
   0.16138533  0.09317586  0.12468278       0.007
   0.20173166  0.11646983  0.12468278       0.004
   0.04034633  0.06988190  0.12468278       0.007
   0.08069266  0.09317586  0.12468278       0.015
   0.12103900  0.11646983  0.12468278       0.015
   0.16138533  0.13976379  0.12468278       0.015
   0.08069266  0.13976379  0.12468278       0.007
   0.12103900  0.16305776  0.12468278       0.015
   0.16138533  0.18635172  0.12468278       0.007
   0.12103900  0.20964569  0.12468278       0.007
 
 k-points in reciprocal lattice and weights: Automatic mesh                          
   0.00000000  0.00000000  0.00000000       0.001
   0.10000000 -0.00000000  0.00000000       0.007
   0.20000000 -0.00000000  0.00000000       0.007
   0.30000000  0.00000000  0.00000000       0.007
   0.40000000  0.00000000  0.00000000       0.007
   0.50000000  0.00000000  0.00000000       0.004
   0.10000000  0.10000000  0.00000000       0.007
   0.20000000  0.10000000  0.00000000       0.015
   0.30000000  0.10000000  0.00000000       0.015
   0.40000000  0.10000000  0.00000000       0.015
   0.20000000  0.20000000  0.00000000       0.007
   0.30000000  0.20000000  0.00000000       0.015
   0.40000000  0.20000000  0.00000000       0.007
   0.30000000  0.30000000  0.00000000       0.007
   0.00000000  0.00000000  0.12500000       0.003
   0.10000000 -0.00000000  0.12500000       0.015
   0.20000000 -0.00000000  0.12500000       0.015
   0.30000000  0.00000000  0.12500000       0.015
   0.40000000  0.00000000  0.12500000       0.015
   0.50000000  0.00000000  0.12500000       0.007
   0.10000000  0.10000000  0.12500000       0.015
   0.20000000  0.10000000  0.12500000       0.030
   0.30000000  0.10000000  0.12500000       0.030
   0.40000000  0.10000000  0.12500000       0.030
   0.20000000  0.20000000  0.12500000       0.015
   0.30000000  0.20000000  0.12500000       0.030
   0.40000000  0.20000000  0.12500000       0.015
   0.30000000  0.30000000  0.12500000       0.015
   0.00000000  0.00000000  0.25000000       0.003
   0.10000000 -0.00000000  0.25000000       0.015
   0.20000000 -0.00000000  0.25000000       0.015
   0.30000000  0.00000000  0.25000000       0.015
   0.40000000  0.00000000  0.25000000       0.015
   0.50000000  0.00000000  0.25000000       0.007
   0.10000000  0.10000000  0.25000000       0.015
   0.20000000  0.10000000  0.25000000       0.030
   0.30000000  0.10000000  0.25000000       0.030
   0.40000000  0.10000000  0.25000000       0.030
   0.20000000  0.20000000  0.25000000       0.015
   0.30000000  0.20000000  0.25000000       0.030
   0.40000000  0.20000000  0.25000000       0.015
   0.30000000  0.30000000  0.25000000       0.015
   0.00000000  0.00000000  0.37500000       0.003
   0.10000000 -0.00000000  0.37500000       0.015
   0.20000000 -0.00000000  0.37500000       0.015
   0.30000000  0.00000000  0.37500000       0.015
   0.40000000  0.00000000  0.37500000       0.015
   0.50000000  0.00000000  0.37500000       0.007
   0.10000000  0.10000000  0.37500000       0.015
   0.20000000  0.10000000  0.37500000       0.030
   0.30000000  0.10000000  0.37500000       0.030
   0.40000000  0.10000000  0.37500000       0.030
   0.20000000  0.20000000  0.37500000       0.015
   0.30000000  0.20000000  0.37500000       0.030
   0.40000000  0.20000000  0.37500000       0.015
   0.30000000  0.30000000  0.37500000       0.015
   0.00000000  0.00000000  0.50000000       0.001
   0.10000000 -0.00000000  0.50000000       0.007
   0.20000000 -0.00000000  0.50000000       0.007
   0.30000000  0.00000000  0.50000000       0.007
   0.40000000  0.00000000  0.50000000       0.007
   0.50000000  0.00000000  0.50000000       0.004
   0.10000000  0.10000000  0.50000000       0.007
   0.20000000  0.10000000  0.50000000       0.015
   0.30000000  0.10000000  0.50000000       0.015
   0.40000000  0.10000000  0.50000000       0.015
   0.20000000  0.20000000  0.50000000       0.007
   0.30000000  0.20000000  0.50000000       0.015
   0.40000000  0.20000000  0.50000000       0.007
   0.30000000  0.30000000  0.50000000       0.007
 
 position of ions in fractional coordinates (direct lattice) 
   0.00000000  0.00000000  0.00000000
   0.33333333  0.66666667  0.50000000
 
 position of ions in cartesian coordinates  (Angst):
   0.00000000  0.00000000  0.00000000
   0.00000000  1.43098578  2.00508848
 


--------------------------------------------------------------------------------------------------------


 k-point   1 :   0.0000 0.0000 0.0000  plane waves:     379
 k-point   2 :   0.1000-0.0000 0.0000  plane waves:     381
 k-point   3 :   0.2000-0.0000 0.0000  plane waves:     383
 k-point   4 :   0.3000 0.0000 0.0000  plane waves:     387
 k-point   5 :   0.4000 0.0000 0.0000  plane waves:     383
 k-point   6 :   0.5000 0.0000 0.0000  plane waves:     388
 k-point   7 :   0.1000 0.1000 0.0000  plane waves:     384
 k-point   8 :   0.2000 0.1000 0.0000  plane waves:     384
 k-point   9 :   0.3000 0.1000 0.0000  plane waves:     391
 k-point  10 :   0.4000 0.1000 0.0000  plane waves:     393
 k-point  11 :   0.2000 0.2000 0.0000  plane waves:     390
 k-point  12 :   0.3000 0.2000 0.0000  plane waves:     393
 k-point  13 :   0.4000 0.2000 0.0000  plane waves:     390
 k-point  14 :   0.3000 0.3000 0.0000  plane waves:     388
 k-point  15 :   0.0000 0.0000 0.1250  plane waves:     385
 k-point  16 :   0.1000-0.0000 0.1250  plane waves:     378
 k-point  17 :   0.2000-0.0000 0.1250  plane waves:     383
 k-point  18 :   0.3000 0.0000 0.1250  plane waves:     385
 k-point  19 :   0.4000 0.0000 0.1250  plane waves:     386
 k-point  20 :   0.5000 0.0000 0.1250  plane waves:     388
 k-point  21 :   0.1000 0.1000 0.1250  plane waves:     384
 k-point  22 :   0.2000 0.1000 0.1250  plane waves:     386
 k-point  23 :   0.3000 0.1000 0.1250  plane waves:     395
 k-point  24 :   0.4000 0.1000 0.1250  plane waves:     390
 k-point  25 :   0.2000 0.2000 0.1250  plane waves:     394
 k-point  26 :   0.3000 0.2000 0.1250  plane waves:     390
 k-point  27 :   0.4000 0.2000 0.1250  plane waves:     393
 k-point  28 :   0.3000 0.3000 0.1250  plane waves:     389
 k-point  29 :   0.0000 0.0000 0.2500  plane waves:     385
 k-point  30 :   0.1000-0.0000 0.2500  plane waves:     372
 k-point  31 :   0.2000-0.0000 0.2500  plane waves:     382
 k-point  32 :   0.3000 0.0000 0.2500  plane waves:     387
 k-point  33 :   0.4000 0.0000 0.2500  plane waves:     390
 k-point  34 :   0.5000 0.0000 0.2500  plane waves:     384
 k-point  35 :   0.1000 0.1000 0.2500  plane waves:     382
 k-point  36 :   0.2000 0.1000 0.2500  plane waves:     387
 k-point  37 :   0.3000 0.1000 0.2500  plane waves:     391
 k-point  38 :   0.4000 0.1000 0.2500  plane waves:     388
 k-point  39 :   0.2000 0.2000 0.2500  plane waves:     390
 k-point  40 :   0.3000 0.2000 0.2500  plane waves:     391
 k-point  41 :   0.4000 0.2000 0.2500  plane waves:     390
 k-point  42 :   0.3000 0.3000 0.2500  plane waves:     392
 k-point  43 :   0.0000 0.0000 0.3750  plane waves:     361
 k-point  44 :   0.1000-0.0000 0.3750  plane waves:     370
 k-point  45 :   0.2000-0.0000 0.3750  plane waves:     384
 k-point  46 :   0.3000 0.0000 0.3750  plane waves:     388
 k-point  47 :   0.4000 0.0000 0.3750  plane waves:     388
 k-point  48 :   0.5000 0.0000 0.3750  plane waves:     378
 k-point  49 :   0.1000 0.1000 0.3750  plane waves:     378
 k-point  50 :   0.2000 0.1000 0.3750  plane waves:     391
 k-point  51 :   0.3000 0.1000 0.3750  plane waves:     388
 k-point  52 :   0.4000 0.1000 0.3750  plane waves:     392
 k-point  53 :   0.2000 0.2000 0.3750  plane waves:     389
 k-point  54 :   0.3000 0.2000 0.3750  plane waves:     390
 k-point  55 :   0.4000 0.2000 0.3750  plane waves:     391
 k-point  56 :   0.3000 0.3000 0.3750  plane waves:     388
 k-point  57 :   0.0000 0.0000 0.5000  plane waves:     362
 k-point  58 :   0.1000-0.0000 0.5000  plane waves:     368
 k-point  59 :   0.2000-0.0000 0.5000  plane waves:     382
 k-point  60 :   0.3000 0.0000 0.5000  plane waves:     396
 k-point  61 :   0.4000 0.0000 0.5000  plane waves:     390
 k-point  62 :   0.5000 0.0000 0.5000  plane waves:     380
 k-point  63 :   0.1000 0.1000 0.5000  plane waves:     384
 k-point  64 :   0.2000 0.1000 0.5000  plane waves:     390
 k-point  65 :   0.3000 0.1000 0.5000  plane waves:     390
 k-point  66 :   0.4000 0.1000 0.5000  plane waves:     388
 k-point  67 :   0.2000 0.2000 0.5000  plane waves:     382
 k-point  68 :   0.3000 0.2000 0.5000  plane waves:     388
 k-point  69 :   0.4000 0.2000 0.5000  plane waves:     390
 k-point  70 :   0.3000 0.3000 0.5000  plane waves:     382

 maximum and minimum number of plane-waves per node :        72       56

 maximum number of plane-waves:       396
 maximum index in each direction: 
   IXMAX=    4   IYMAX=    4   IZMAX=    6
   IXMIN=   -4   IYMIN=   -4   IZMIN=   -7


 parallel 3D FFT for wavefunctions:
    minimum data exchange during FFTs selected (reduces bandwidth)
 parallel 3D FFT for charge:
    minimum data exchange during FFTs selected (reduces bandwidth)


 total amount of memory used by VASP MPI-rank0    32033. kBytes
=======================================================================

   base      :      30000. kBytes
   nonl-proj :        687. kBytes
   fftplans  :        153. kBytes
   grid      :        374. kBytes
   one-center:         31. kBytes
   wavefun   :        788. kBytes
 
     INWAV:  cpu time      0.0000: real time      0.0001
 Broyden mixing: mesh for mixing (old mesh)
   NGX =  9   NGY =  9   NGZ = 13
  (NGX  = 32   NGY  = 32   NGZ  = 56)
  gives a total of   1053 points

 initial charge density was supplied:
 charge density of overlapping atoms calculated
 number of electron      18.0000000 magnetization       6.0000000
 keeping initial charge density in first step


--------------------------------------------------------------------------------------------------------


 Maximum index for augmentation-charges         1070 (set IRDMAX)


--------------------------------------------------------------------------------------------------------


 First call to EWALD:  gamma=   0.639
 Maximum number of real-space cells 3x 3x 2
 Maximum number of reciprocal cells 3x 3x 4

    FEWALD:  cpu time      0.0015: real time      0.0015


--------------------------------------- Iteration      1(   1)  ---------------------------------------


    POTLOK:  cpu time      0.0063: real time      0.0064
    SETDIJ:  cpu time      0.0054: real time      0.0054
     EDDAV:  cpu time      0.4219: real time      0.4244
       DOS:  cpu time      0.0021: real time      0.0021
    --------------------------------------------
      LOOP:  cpu time      0.4358: real time      0.4384

 eigenvalue-minimisations  :  4704
 total energy-change (2. order) : 0.6777867E+02  (-0.6799490E+03)
 number of electron      18.0000000 magnetization       6.0000000
 augmentation part       18.0000000 magnetization       6.0000000

 Free energy of the ion-electron system (eV)
  ---------------------------------------------------
  alpha Z        PSCENC =        79.41567083
  Ewald energy   TEWEN  =     -1530.28093412
  -Hartree energ DENC   =      -296.42019758
  -exchange      EXHF   =         0.00000000
  -V(xc)+E(xc)   XCENC  =        35.74000450
  PAW double counting   =      1439.98163886    -1545.88690193
  entropy T*S    EENTRO =        -0.00324089
  eigenvalues    EBANDS =       258.51716090
  atomic energy  EATOM  =      1626.71546820
  Solvation  Ediel_sol  =         0.00000000
  ---------------------------------------------------
  free energy    TOTEN  =        67.77866879 eV

  energy without entropy =       67.78190968  energy(sigma->0) =       67.78028923


--------------------------------------------------------------------------------------------------------




--------------------------------------- Iteration      1(   2)  ---------------------------------------


     EDDAV:  cpu time      0.3918: real time      0.3945
       DOS:  cpu time      0.0013: real time      0.0013
    --------------------------------------------
      LOOP:  cpu time      0.3931: real time      0.3957

 eigenvalue-minimisations  :  4496
 total energy-change (2. order) :-0.8140574E+02  (-0.7531041E+02)
 number of electron      18.0000000 magnetization       6.0000000
 augmentation part       18.0000000 magnetization       6.0000000

 Free energy of the ion-electron system (eV)
  ---------------------------------------------------
  alpha Z        PSCENC =        79.41567083
  Ewald energy   TEWEN  =     -1530.28093412
  -Hartree energ DENC   =      -296.42019758
  -exchange      EXHF   =         0.00000000
  -V(xc)+E(xc)   XCENC  =        35.74000450
  PAW double counting   =      1439.98163886    -1545.88690193
  entropy T*S    EENTRO =        -0.00177559
  eigenvalues    EBANDS =       177.10995405
  atomic energy  EATOM  =      1626.71546820
  Solvation  Ediel_sol  =         0.00000000
  ---------------------------------------------------
  free energy    TOTEN  =       -13.62707277 eV

  energy without entropy =      -13.62529718  energy(sigma->0) =      -13.62618497


--------------------------------------------------------------------------------------------------------




--------------------------------------- Iteration      1(   3)  ---------------------------------------


     EDDAV:  cpu time      0.4735: real time      0.4761
       DOS:  cpu time      0.0014: real time      0.0014
    --------------------------------------------
      LOOP:  cpu time      0.4749: real time      0.4774

 eigenvalue-minimisations  :  5640
 total energy-change (2. order) :-0.1950930E+01  (-0.1925433E+01)
 number of electron      18.0000000 magnetization       6.0000000
 augmentation part       18.0000000 magnetization       6.0000000

 Free energy of the ion-electron system (eV)
  ---------------------------------------------------
  alpha Z        PSCENC =        79.41567083
  Ewald energy   TEWEN  =     -1530.28093412
  -Hartree energ DENC   =      -296.42019758
  -exchange      EXHF   =         0.00000000
  -V(xc)+E(xc)   XCENC  =        35.74000450
  PAW double counting   =      1439.98163886    -1545.88690193
  entropy T*S    EENTRO =        -0.00211211
  eigenvalues    EBANDS =       175.15936078
  atomic energy  EATOM  =      1626.71546820
  Solvation  Ediel_sol  =         0.00000000
  ---------------------------------------------------
  free energy    TOTEN  =       -15.57800256 eV

  energy without entropy =      -15.57589045  energy(sigma->0) =      -15.57694650


--------------------------------------------------------------------------------------------------------




--------------------------------------- Iteration      1(   4)  ---------------------------------------


     EDDAV:  cpu time      0.5363: real time      0.5391
       DOS:  cpu time      0.0015: real time      0.0015
    --------------------------------------------
      LOOP:  cpu time      0.5377: real time      0.5406

 eigenvalue-minimisations  :  6392
 total energy-change (2. order) :-0.3591203E-01  (-0.3590499E-01)
 number of electron      18.0000000 magnetization       6.0000000
 augmentation part       18.0000000 magnetization       6.0000000

 Free energy of the ion-electron system (eV)
  ---------------------------------------------------
  alpha Z        PSCENC =        79.41567083
  Ewald energy   TEWEN  =     -1530.28093412
  -Hartree energ DENC   =      -296.42019758
  -exchange      EXHF   =         0.00000000
  -V(xc)+E(xc)   XCENC  =        35.74000450
  PAW double counting   =      1439.98163886    -1545.88690193
  entropy T*S    EENTRO =        -0.00208602
  eigenvalues    EBANDS =       175.12342266
  atomic energy  EATOM  =      1626.71546820
  Solvation  Ediel_sol  =         0.00000000
  ---------------------------------------------------
  free energy    TOTEN  =       -15.61391458 eV

  energy without entropy =      -15.61182856  energy(sigma->0) =      -15.61287157


--------------------------------------------------------------------------------------------------------




--------------------------------------- Iteration      1(   5)  ---------------------------------------


     EDDAV:  cpu time      0.4761: real time      0.4786
       DOS:  cpu time      0.0013: real time      0.0013
    CHARGE:  cpu time      0.0196: real time      0.0197
    MIXING:  cpu time      0.0003: real time      0.0003
    --------------------------------------------
      LOOP:  cpu time      0.4973: real time      0.4999

 eigenvalue-minimisations  :  5680
 total energy-change (2. order) :-0.2310606E-03  (-0.2310598E-03)
 number of electron      17.9999992 magnetization       3.3792870
 augmentation part        9.1683470 magnetization       2.6371198

 Broyden mixing:
  rms(total) = 0.16448E+01    rms(broyden)= 0.16448E+01
  rms(prec ) = 0.27156E+01
  weight for this iteration     100.00

 Free energy of the ion-electron system (eV)
  ---------------------------------------------------
  alpha Z        PSCENC =        79.41567083
  Ewald energy   TEWEN  =     -1530.28093412
  -Hartree energ DENC   =      -296.42019758
  -exchange      EXHF   =         0.00000000
  -V(xc)+E(xc)   XCENC  =        35.74000450
  PAW double counting   =      1439.98163886    -1545.88690193
  entropy T*S    EENTRO =        -0.00208603
  eigenvalues    EBANDS =       175.12319161
  atomic energy  EATOM  =      1626.71546820
  Solvation  Ediel_sol  =         0.00000000
  ---------------------------------------------------
  free energy    TOTEN  =       -15.61414565 eV

  energy without entropy =      -15.61205962  energy(sigma->0) =      -15.61310263


--------------------------------------------------------------------------------------------------------




--------------------------------------- Iteration      1(   6)  ---------------------------------------


    POTLOK:  cpu time      0.0044: real time      0.0046
    SETDIJ:  cpu time      0.0051: real time      0.0051
     EDDAV:  cpu time      0.4093: real time      0.4114
       DOS:  cpu time      0.0013: real time      0.0013
    CHARGE:  cpu time      0.0184: real time      0.0185
    MIXING:  cpu time      0.0003: real time      0.0003
    --------------------------------------------
      LOOP:  cpu time      0.4389: real time      0.4412

 eigenvalue-minimisations  :  4784
 total energy-change (2. order) : 0.1191029E+01  (-0.1061504E+01)
 number of electron      17.9999990 magnetization       3.2506365
 augmentation part       10.6741919 magnetization       2.8573290

 Broyden mixing:
  rms(total) = 0.63482E+00    rms(broyden)= 0.63479E+00
  rms(prec ) = 0.85124E+00
  weight for this iteration     100.00

 eigenvalues of (default mixing * dielectric matrix)
  average eigenvalue GAMMA=   0.8903
  0.8903

 Free energy of the ion-electron system (eV)
  ---------------------------------------------------
  alpha Z        PSCENC =        79.41567083
  Ewald energy   TEWEN  =     -1530.28093412
  -Hartree energ DENC   =      -259.71620402
  -exchange      EXHF   =         0.00000000
  -V(xc)+E(xc)   XCENC  =        32.68768641
  PAW double counting   =      1594.61163824    -1690.47024656
  entropy T*S    EENTRO =        -0.00238734
  eigenvalues    EBANDS =       132.61619196
  atomic energy  EATOM  =      1626.71546820
  Solvation  Ediel_sol  =         0.00000000
  ---------------------------------------------------
  free energy    TOTEN  =       -14.42311638 eV

  energy without entropy =      -14.42072904  energy(sigma->0) =      -14.42192271


--------------------------------------------------------------------------------------------------------




--------------------------------------- Iteration      1(   7)  ---------------------------------------


    POTLOK:  cpu time      0.0042: real time      0.0044
    SETDIJ:  cpu time      0.0051: real time      0.0051
     EDDAV:  cpu time      0.4344: real time      0.4366
       DOS:  cpu time      0.0014: real time      0.0014
    CHARGE:  cpu time      0.0183: real time      0.0184
    MIXING:  cpu time      0.0002: real time      0.0002
    --------------------------------------------
      LOOP:  cpu time      0.4637: real time      0.4661

 eigenvalue-minimisations  :  5160
 total energy-change (2. order) : 0.3164778E+00  (-0.1435293E+00)
 number of electron      17.9999991 magnetization       3.2873241
 augmentation part       10.1658691 magnetization       2.9221794

 Broyden mixing:
  rms(total) = 0.38330E+00    rms(broyden)= 0.38329E+00
  rms(prec ) = 0.45858E+00
  weight for this iteration     100.00

 eigenvalues of (default mixing * dielectric matrix)
  average eigenvalue GAMMA=   0.7463
  0.9995  0.4931

 Free energy of the ion-electron system (eV)
  ---------------------------------------------------
  alpha Z        PSCENC =        79.41567083
  Ewald energy   TEWEN  =     -1530.28093412
  -Hartree energ DENC   =      -267.37009616
  -exchange      EXHF   =         0.00000000
  -V(xc)+E(xc)   XCENC  =        33.20542765
  PAW double counting   =      1677.09633829    -1779.81809959
  entropy T*S    EENTRO =        -0.00291934
  eigenvalues    EBANDS =       146.93250561
  atomic energy  EATOM  =      1626.71546820
  Solvation  Ediel_sol  =         0.00000000
  ---------------------------------------------------
  free energy    TOTEN  =       -14.10663863 eV

  energy without entropy =      -14.10371928  energy(sigma->0) =      -14.10517896


--------------------------------------------------------------------------------------------------------




--------------------------------------- Iteration      1(   8)  ---------------------------------------


    POTLOK:  cpu time      0.0042: real time      0.0044
    SETDIJ:  cpu time      0.0048: real time      0.0048
     EDDAV:  cpu time      0.5212: real time      0.5238
       DOS:  cpu time      0.0014: real time      0.0015
    CHARGE:  cpu time      0.0190: real time      0.0191
    MIXING:  cpu time      0.0003: real time      0.0003
    --------------------------------------------
      LOOP:  cpu time      0.5509: real time      0.5538

 eigenvalue-minimisations  :  6304
 total energy-change (2. order) : 0.2242654E-01  (-0.1995328E-02)
 number of electron      17.9999991 magnetization       3.3396412
 augmentation part       10.2042114 magnetization       2.9945266

 Broyden mixing:
  rms(total) = 0.17888E+00    rms(broyden)= 0.17888E+00
  rms(prec ) = 0.22868E+00
  weight for this iteration     100.00

 eigenvalues of (default mixing * dielectric matrix)
  average eigenvalue GAMMA=   1.0546
  1.8060  0.7914  0.5664

 Free energy of the ion-electron system (eV)
  ---------------------------------------------------
  alpha Z        PSCENC =        79.41567083
  Ewald energy   TEWEN  =     -1530.28093412
  -Hartree energ DENC   =      -264.71571960
  -exchange      EXHF   =         0.00000000
  -V(xc)+E(xc)   XCENC  =        33.15000105
  PAW double counting   =      1734.78653543    -1838.72638649
  entropy T*S    EENTRO =        -0.00245399
  eigenvalues    EBANDS =       145.57360659
  atomic energy  EATOM  =      1626.71546820
  Solvation  Ediel_sol  =         0.00000000
  ---------------------------------------------------
  free energy    TOTEN  =       -14.08421209 eV

  energy without entropy =      -14.08175810  energy(sigma->0) =      -14.08298510


--------------------------------------------------------------------------------------------------------




--------------------------------------- Iteration      1(   9)  ---------------------------------------


    POTLOK:  cpu time      0.0044: real time      0.0046
    SETDIJ:  cpu time      0.0050: real time      0.0050
     EDDAV:  cpu time      0.5418: real time      0.5445
       DOS:  cpu time      0.0014: real time      0.0014
    CHARGE:  cpu time      0.0184: real time      0.0184
    MIXING:  cpu time      0.0003: real time      0.0003
    --------------------------------------------
      LOOP:  cpu time      0.5713: real time      0.5743

 eigenvalue-minimisations  :  6624
 total energy-change (2. order) : 0.1499433E-01  (-0.5824340E-03)
 number of electron      17.9999991 magnetization       3.3326050
 augmentation part       10.2430556 magnetization       2.9992264

 Broyden mixing:
  rms(total) = 0.49778E-01    rms(broyden)= 0.49778E-01
  rms(prec ) = 0.56616E-01
  weight for this iteration     100.00

 eigenvalues of (default mixing * dielectric matrix)
  average eigenvalue GAMMA=   1.0865
  2.1819  0.7811  0.7811  0.6017

 Free energy of the ion-electron system (eV)
  ---------------------------------------------------
  alpha Z        PSCENC =        79.41567083
  Ewald energy   TEWEN  =     -1530.28093412
  -Hartree energ DENC   =      -261.83180392
  -exchange      EXHF   =         0.00000000
  -V(xc)+E(xc)   XCENC  =        33.06977704
  PAW double counting   =      1800.68061272    -1906.17688272
  entropy T*S    EENTRO =        -0.00240833
  eigenvalues    EBANDS =       144.34128253
  atomic energy  EATOM  =      1626.71546820
  Solvation  Ediel_sol  =         0.00000000
  ---------------------------------------------------
  free energy    TOTEN  =       -14.06921776 eV

  energy without entropy =      -14.06680942  energy(sigma->0) =      -14.06801359


--------------------------------------------------------------------------------------------------------




--------------------------------------- Iteration      1(  10)  ---------------------------------------


    POTLOK:  cpu time      0.0042: real time      0.0044
    SETDIJ:  cpu time      0.0049: real time      0.0049
     EDDAV:  cpu time      0.5163: real time      0.5189
       DOS:  cpu time      0.0014: real time      0.0014
    CHARGE:  cpu time      0.0182: real time      0.0183
    MIXING:  cpu time      0.0003: real time      0.0003
    --------------------------------------------
      LOOP:  cpu time      0.5453: real time      0.5482

 eigenvalue-minimisations  :  6336
 total energy-change (2. order) : 0.5473941E-03  (-0.8194624E-04)
 number of electron      17.9999991 magnetization       3.3260182
 augmentation part       10.2455026 magnetization       2.9830587

 Broyden mixing:
  rms(total) = 0.96169E-02    rms(broyden)= 0.96168E-02
  rms(prec ) = 0.12229E-01
  weight for this iteration     100.00

 eigenvalues of (default mixing * dielectric matrix)
  average eigenvalue GAMMA=   1.1422
  2.3624  1.0144  1.0144  0.6598  0.6598

 Free energy of the ion-electron system (eV)
  ---------------------------------------------------
  alpha Z        PSCENC =        79.41567083
  Ewald energy   TEWEN  =     -1530.28093412
  -Hartree energ DENC   =      -261.16032367
  -exchange      EXHF   =         0.00000000
  -V(xc)+E(xc)   XCENC  =        33.01207851
  PAW double counting   =      1820.58700011    -1926.66648989
  entropy T*S    EENTRO =        -0.00246786
  eigenvalues    EBANDS =       144.31132752
  atomic energy  EATOM  =      1626.71546820
  Solvation  Ediel_sol  =         0.00000000
  ---------------------------------------------------
  free energy    TOTEN  =       -14.06867036 eV

  energy without entropy =      -14.06620250  energy(sigma->0) =      -14.06743643


--------------------------------------------------------------------------------------------------------




--------------------------------------- Iteration      1(  11)  ---------------------------------------


    POTLOK:  cpu time      0.0042: real time      0.0044
    SETDIJ:  cpu time      0.0048: real time      0.0048
     EDDAV:  cpu time      0.5392: real time      0.5419
       DOS:  cpu time      0.0014: real time      0.0014
    CHARGE:  cpu time      0.0185: real time      0.0186
    MIXING:  cpu time      0.0003: real time      0.0003
    --------------------------------------------
      LOOP:  cpu time      0.5684: real time      0.5714

 eigenvalue-minimisations  :  6600
 total energy-change (2. order) : 0.2411089E-04  (-0.9313958E-05)
 number of electron      17.9999991 magnetization       3.3257063
 augmentation part       10.2464470 magnetization       2.9794961

 Broyden mixing:
  rms(total) = 0.23623E-02    rms(broyden)= 0.23621E-02
  rms(prec ) = 0.34354E-02
  weight for this iteration     100.00

 eigenvalues of (default mixing * dielectric matrix)
  average eigenvalue GAMMA=   1.0786
  2.3536  1.0383  1.0383  0.6128  0.7141  0.7141

 Free energy of the ion-electron system (eV)
  ---------------------------------------------------
  alpha Z        PSCENC =        79.41567083
  Ewald energy   TEWEN  =     -1530.28093412
  -Hartree energ DENC   =      -261.00246664
  -exchange      EXHF   =         0.00000000
  -V(xc)+E(xc)   XCENC  =        32.99410707
  PAW double counting   =      1825.06826733    -1931.27868455
  entropy T*S    EENTRO =        -0.00251758
  eigenvalues    EBANDS =       144.30244320
  atomic energy  EATOM  =      1626.71546820
  Solvation  Ediel_sol  =         0.00000000
  ---------------------------------------------------
  free energy    TOTEN  =       -14.06864625 eV

  energy without entropy =      -14.06612867  energy(sigma->0) =      -14.06738746


--------------------------------------------------------------------------------------------------------




--------------------------------------- Iteration      1(  12)  ---------------------------------------


    POTLOK:  cpu time      0.0042: real time      0.0044
    SETDIJ:  cpu time      0.0050: real time      0.0050
     EDDAV:  cpu time      0.4216: real time      0.4237
       DOS:  cpu time      0.0013: real time      0.0013
    CHARGE:  cpu time      0.0182: real time      0.0183
    MIXING:  cpu time      0.0004: real time      0.0004
    --------------------------------------------
      LOOP:  cpu time      0.4507: real time      0.4531

 eigenvalue-minimisations  :  4936
 total energy-change (2. order) : 0.3294392E-05  (-0.4703848E-06)
 number of electron      17.9999991 magnetization       3.3263282
 augmentation part       10.2465988 magnetization       2.9800964

 Broyden mixing:
  rms(total) = 0.14737E-02    rms(broyden)= 0.14737E-02
  rms(prec ) = 0.22853E-02
  weight for this iteration     100.00

 eigenvalues of (default mixing * dielectric matrix)
  average eigenvalue GAMMA=   1.2323
  2.2990  2.2990  1.0256  1.0256  0.7058  0.6353  0.6353

 Free energy of the ion-electron system (eV)
  ---------------------------------------------------
  alpha Z        PSCENC =        79.41567083
  Ewald energy   TEWEN  =     -1530.28093412
  -Hartree energ DENC   =      -260.98088307
  -exchange      EXHF   =         0.00000000
  -V(xc)+E(xc)   XCENC  =        32.99247189
  PAW double counting   =      1825.61323656    -1931.83765726
  entropy T*S    EENTRO =        -0.00251403
  eigenvalues    EBANDS =       144.29649803
  atomic energy  EATOM  =      1626.71546820
  Solvation  Ediel_sol  =         0.00000000
  ---------------------------------------------------
  free energy    TOTEN  =       -14.06864296 eV

  energy without entropy =      -14.06612893  energy(sigma->0) =      -14.06738594


--------------------------------------------------------------------------------------------------------




--------------------------------------- Iteration      1(  13)  ---------------------------------------


    POTLOK:  cpu time      0.0042: real time      0.0044
    SETDIJ:  cpu time      0.0048: real time      0.0048
     EDDAV:  cpu time      0.3152: real time      0.3168
       DOS:  cpu time      0.0014: real time      0.0014
    --------------------------------------------
      LOOP:  cpu time      0.3256: real time      0.3274

 eigenvalue-minimisations  :  3032
 total energy-change (2. order) : 0.9453536E-06  (-0.9074620E-07)
 number of electron      17.9999991 magnetization       3.3263282
 augmentation part       10.2465988 magnetization       2.9800964

 Free energy of the ion-electron system (eV)
  ---------------------------------------------------
  alpha Z        PSCENC =        79.41567083
  Ewald energy   TEWEN  =     -1530.28093412
  -Hartree energ DENC   =      -260.93639791
  -exchange      EXHF   =         0.00000000
  -V(xc)+E(xc)   XCENC  =        32.99111035
  PAW double counting   =      1826.75036598    -1932.99943063
  entropy T*S    EENTRO =        -0.00251924
  eigenvalues    EBANDS =       144.27802450
  atomic energy  EATOM  =      1626.71546820
  Solvation  Ediel_sol  =         0.00000000
  ---------------------------------------------------
  free energy    TOTEN  =       -14.06864201 eV

  energy without entropy =      -14.06612278  energy(sigma->0) =      -14.06738240


--------------------------------------------------------------------------------------------------------




 average (electrostatic) potential at core
  the test charge radii are     1.0452
  (the norm of the test charge is              1.0000)
       1 -78.0726       2 -78.0726
 
 
 
 E-fermi :  10.4381     XC(G=0): -13.5065     alpha+bet :-18.0311

 Fermi energy:        10.4381269798

 spin component 1

 k-point     1 :       0.0000    0.0000    0.0000
  band No.  band energies     occupation 
      1       1.4796      1.00000
      2       5.2624      1.00000
      3       7.8235      1.00000
      4       7.8446      1.00000
      5       7.8446      1.00000
      6       8.1634      1.00000
      7       8.1634      1.00000
      8       8.5261      1.00000
      9       8.5261      1.00000
     10       9.6502      1.00000
     11       9.6502      1.00000
     12      10.4009      0.85379
     13      16.9681      0.00000
     14      32.6202      0.00000
     15      35.3447      0.00000
     16      35.3447      0.00000

 k-point     2 :       0.1000   -0.0000    0.0000
  band No.  band energies     occupation 
      1       1.8331      1.00000
      2       5.4708      1.00000
      3       7.5506      1.00000
      4       8.0101      1.00000
      5       8.0400      1.00000
      6       8.1241      1.00000
      7       8.2692      1.00000
      8       8.3101      1.00000
      9       8.4242      1.00000
     10       8.7416      1.00000
     11       9.6927      1.00000
     12      11.8057      0.00000
     13      17.0298      0.00000
     14      30.0794      0.00000
     15      32.6855      0.00000
     16      32.9445      0.00000

 k-point     3 :       0.2000   -0.0000    0.0000
  band No.  band energies     occupation 
      1       2.8341      1.00000
      2       5.9217      1.00000
      3       7.2331      1.00000
      4       7.3314      1.00000
      5       7.8852      1.00000
      6       8.1900      1.00000
      7       8.4029      1.00000
      8       8.4644      1.00000
      9       8.4882      1.00000
     10       8.7077      1.00000
     11       9.7730      1.00000
     12      13.8215      0.00000
     13      17.2551      0.00000
     14      25.4505      0.00000
     15      29.8811      0.00000
     16      31.8070      0.00000

 k-point     4 :       0.3000    0.0000    0.0000
  band No.  band energies     occupation 
      1       4.2277      1.00000
      2       6.0460      1.00000
      3       6.5599      1.00000
      4       7.2069      1.00000
      5       7.8989      1.00000
      6       7.9390      1.00000
      7       8.1693      1.00000
      8       9.0702      1.00000
      9       9.1560      1.00000
     10       9.2366      1.00000
     11       9.8361      1.00000
     12      16.1079      0.00000
     13      17.5989      0.00000
     14      21.3107      0.00000
     15      27.6021      0.00000
     16      28.8241      0.00000

 k-point     5 :       0.4000    0.0000    0.0000
  band No.  band energies     occupation 
      1       5.3141      1.00000
      2       5.8269      1.00000
      3       6.0944      1.00000
      4       7.5869      1.00000
      5       7.7553      1.00000
      6       7.9934      1.00000
      7       8.1520      1.00000
      8       9.5849      1.00000
      9       9.7218      1.00000
     10       9.8698      1.00000
     11      10.3545      0.99098
     12      16.1211      0.00000
     13      18.5624      0.00000
     14      20.0939      0.00000
     15      25.4223      0.00000
     16      26.0631      0.00000

 k-point     6 :       0.5000    0.0000    0.0000
  band No.  band energies     occupation 
      1       5.6353      1.00000
      2       5.6741      1.00000
      3       5.9394      1.00000
      4       7.6889      1.00000
      5       7.9278      1.00000
      6       7.9324      1.00000
      7       8.2640      1.00000
      8       9.7797      1.00000
      9       9.8797      1.00000
     10       9.9322      1.00000
     11      11.8198      0.00000
     12      13.8749      0.00000
     13      20.3036      0.00000
     14      20.9731      0.00000
     15      23.3708      0.00000
     16      24.6572      0.00000

 k-point     7 :       0.1000    0.1000    0.0000
  band No.  band energies     occupation 
      1       2.5133      1.00000
      2       5.8194      1.00000
      3       7.2706      1.00000
      4       7.6175      1.00000
      5       7.9617      1.00000
      6       8.1473      1.00000
      7       8.2617      1.00000
      8       8.3482      1.00000
      9       8.5593      1.00000
     10       8.6422      1.00000
     11       9.7358      1.00000
     12      13.2565      0.00000
     13      17.1797      0.00000
     14      27.6159      0.00000
     15      28.2899      0.00000
     16      34.5287      0.00000

 k-point     8 :       0.2000    0.1000    0.0000
  band No.  band energies     occupation 
      1       3.7420      1.00000
      2       6.1921      1.00000
      3       6.8434      1.00000
      4       6.9879      1.00000
      5       7.8722      1.00000
      6       7.8766      1.00000
      7       8.3664      1.00000
      8       8.6085      1.00000
      9       8.9284      1.00000
     10       9.2503      1.00000
     11       9.7805      1.00000
     12      15.2908      0.00000
     13      17.5583      0.00000
     14      23.3800      0.00000
     15      26.0049      0.00000
     16      30.8416      0.00000

 k-point     9 :       0.3000    0.1000    0.0000
  band No.  band energies     occupation 
      1       5.0780      1.00000
      2       6.0740      1.00000
      3       6.2905      1.00000
      4       7.1341      1.00000
      5       7.7002      1.00000
      6       8.0412      1.00000
      7       8.1170      1.00000
      8       9.1606      1.00000
      9       9.4980      1.00000
     10       9.8111      1.00000
     11      10.1286      1.00000
     12      17.5768      0.00000
     13      17.6392      0.00000
     14      20.1641      0.00000
     15      24.4165      0.00000
     16      27.2317      0.00000

 k-point    10 :       0.4000    0.1000    0.0000
  band No.  band energies     occupation 
      1       5.7166      1.00000
      2       5.8667      1.00000
      3       6.0107      1.00000
      4       7.5865      1.00000
      5       7.6406      1.00000
      6       7.9231      1.00000
      7       8.2579      1.00000
      8       9.6771      1.00000
      9       9.7986      1.00000
     10       9.8241      1.00000
     11      11.6094      0.00000
     12      14.9435      0.00000
     13      20.0345      0.00000
     14      20.8345      0.00000
     15      23.3928      0.00000
     16      24.2085      0.00000

 k-point    11 :       0.2000    0.2000    0.0000
  band No.  band energies     occupation 
      1       5.0087      1.00000
      2       6.4164      1.00000
      3       6.4672      1.00000
      4       6.6405      1.00000
      5       7.6046      1.00000
      6       8.0021      1.00000
      7       8.2084      1.00000
      8       8.8122      1.00000
      9       9.5032      1.00000
     10       9.7545      1.00000
     11      10.1616      1.00000
     12      17.3318      0.00000
     13      18.1877      0.00000
     14      21.4800      0.00000
     15      22.0969      0.00000
     16      29.2453      0.00000

 k-point    12 :       0.3000    0.2000    0.0000
  band No.  band energies     occupation 
      1       5.9771      1.00000
      2       6.1442      1.00000
      3       6.2680      1.00000
      4       6.8893      1.00000
      5       7.5133      1.00000
      6       7.9503      1.00000
      7       8.2545      1.00000
      8       9.2033      1.00000
      9       9.7314      1.00000
     10       9.8023      1.00000
     11      11.5617      0.00000
     12      17.1413      0.00000
     13      19.7270      0.00000
     14      19.8705      0.00000
     15      21.2337      0.00000
     16      26.1452      0.00000

 k-point    13 :       0.4000    0.2000    0.0000
  band No.  band energies     occupation 
      1       6.0524      1.00000
      2       6.1512      1.00000
      3       6.1751      1.00000
      4       7.1933      1.00000
      5       7.5455      1.00000
      6       7.7843      1.00000
      7       8.3804      1.00000
      8       9.5499      1.00000
      9       9.7227      1.00000
     10       9.7494      1.00000
     11      13.2614      0.00000
     12      14.6855      0.00000
     13      19.8572      0.00000
     14      21.6510      0.00000
     15      21.9608      0.00000
     16      23.8959      0.00000

 k-point    14 :       0.3000    0.3000    0.0000
  band No.  band energies     occupation 
      1       6.1000      1.00000
      2       6.3765      1.00000
      3       6.5343      1.00000
      4       6.7708      1.00000
      5       7.5068      1.00000
      6       7.7059      1.00000
      7       8.4731      1.00000
      8       9.3867      1.00000
      9       9.6720      1.00000
     10       9.7064      1.00000
     11      13.6799      0.00000
     12      16.6912      0.00000
     13      16.7270      0.00000
     14      22.1972      0.00000
     15      22.4431      0.00000
     16      25.0670      0.00000

 k-point    15 :       0.0000    0.0000    0.1250
  band No.  band energies     occupation 
      1       1.6392      1.00000
      2       5.2328      1.00000
      3       7.7822      1.00000
      4       7.8023      1.00000
      5       7.8023      1.00000
      6       8.1198      1.00000
      7       8.1198      1.00000
      8       8.6252      1.00000
      9       8.6252      1.00000
     10       9.6417      1.00000
     11       9.6417      1.00000
     12       9.7824      1.00000
     13      17.8982      0.00000
     14      32.5557      0.00000
     15      34.8516      0.00000
     16      35.4501      0.00000

 k-point    16 :       0.1000   -0.0000    0.1250
  band No.  band energies     occupation 
      1       1.9890      1.00000
      2       5.4535      1.00000
      3       7.5537      1.00000
      4       7.9283      1.00000
      5       7.9488      1.00000
      6       7.9503      1.00000
      7       8.2585      1.00000
      8       8.4119      1.00000
      9       8.5542      1.00000
     10       8.7143      1.00000
     11       9.6781      1.00000
     12      11.2344      0.00000
     13      18.0321      0.00000
     14      30.1769      0.00000
     15      32.8442      0.00000
     16      32.8948      0.00000

 k-point    17 :       0.2000   -0.0000    0.1250
  band No.  band energies     occupation 
      1       2.9744      1.00000
      2       5.9395      1.00000
      3       7.1919      1.00000
      4       7.2690      1.00000
      5       7.8170      1.00000
      6       8.1497      1.00000
      7       8.2729      1.00000
      8       8.5452      1.00000
      9       8.6801      1.00000
     10       8.6891      1.00000
     11       9.7461      1.00000
     12      12.9222      0.00000
     13      18.4969      0.00000
     14      25.5871      0.00000
     15      30.0736      0.00000
     16      31.1076      0.00000

 k-point    18 :       0.3000    0.0000    0.1250
  band No.  band energies     occupation 
      1       4.3165      1.00000
      2       6.0811      1.00000
      3       6.5317      1.00000
      4       7.1870      1.00000
      5       7.8048      1.00000
      6       7.9835      1.00000
      7       8.3076      1.00000
      8       9.0905      1.00000
      9       9.1502      1.00000
     10       9.1908      1.00000
     11       9.8011      1.00000
     12      14.6381      0.00000
     13      19.2720      0.00000
     14      21.4905      0.00000
     15      27.5767      0.00000
     16      27.8230      0.00000

 k-point    19 :       0.4000    0.0000    0.1250
  band No.  band energies     occupation 
      1       5.2615      1.00000
      2       5.8230      1.00000
      3       6.2751      1.00000
      4       7.1899      1.00000
      5       7.8191      1.00000
      6       8.1427      1.00000
      7       8.5109      1.00000
      8       9.5867      1.00000
      9       9.6456      1.00000
     10       9.8532      1.00000
     11      10.2698      1.00000
     12      15.4298      0.00000
     13      18.3066      0.00000
     14      21.0705      0.00000
     15      24.4913      0.00000
     16      26.3048      0.00000

 k-point    20 :       0.5000    0.0000    0.1250
  band No.  band energies     occupation 
      1       5.4556      1.00000
      2       5.6682      1.00000
      3       6.2624      1.00000
      4       7.2196      1.00000
      5       7.7570      1.00000
      6       8.2659      1.00000
      7       8.7470      1.00000
      8       9.7251      1.00000
      9       9.8377      1.00000
     10       9.9277      1.00000
     11      11.7044      0.00000
     12      13.7790      0.00000
     13      19.7265      0.00000
     14      20.0950      0.00000
     15      24.5430      0.00000
     16      25.5571      0.00000

 k-point    21 :       0.1000    0.1000    0.1250
  band No.  band energies     occupation 
      1       2.6599      1.00000
      2       5.8272      1.00000
      3       7.2901      1.00000
      4       7.4355      1.00000
      5       7.9485      1.00000
      6       8.0310      1.00000
      7       8.2467      1.00000
      8       8.4122      1.00000
      9       8.6628      1.00000
     10       8.6713      1.00000
     11       9.7160      1.00000
     12      12.4667      0.00000
     13      18.3376      0.00000
     14      27.7360      0.00000
     15      28.4396      0.00000
     16      33.4051      0.00000

 k-point    22 :       0.2000    0.1000    0.1250
  band No.  band energies     occupation 
      1       3.8594      1.00000
      2       6.2382      1.00000
      3       6.7463      1.00000
      4       7.0275      1.00000
      5       7.7480      1.00000
      6       7.9866      1.00000
      7       8.2826      1.00000
      8       8.6581      1.00000
      9       9.0086      1.00000
     10       9.2006      1.00000
     11       9.7696      1.00000
     12      14.0755      0.00000
     13      19.0577      0.00000
     14      23.5276      0.00000
     15      26.1637      0.00000
     16      29.7413      0.00000

 k-point    23 :       0.3000    0.1000    0.1250
  band No.  band energies     occupation 
      1       5.1034      1.00000
      2       6.1086      1.00000
      3       6.3265      1.00000
      4       7.0651      1.00000
      5       7.7374      1.00000
      6       8.0594      1.00000
      7       8.2120      1.00000
      8       9.1453      1.00000
      9       9.5429      1.00000
     10       9.6750      1.00000
     11      10.1672      1.00000
     12      15.6597      0.00000
     13      19.1494      0.00000
     14      20.8749      0.00000
     15      24.5609      0.00000
     16      26.1479      0.00000

 k-point    24 :       0.4000    0.1000    0.1250
  band No.  band energies     occupation 
      1       5.5634      1.00000
      2       5.8588      1.00000
      3       6.3144      1.00000
      4       7.1425      1.00000
      5       7.6748      1.00000
      6       8.2844      1.00000
      7       8.3864      1.00000
      8       9.6365      1.00000
      9       9.7390      1.00000
     10       9.8279      1.00000
     11      11.5933      0.00000
     12      14.7869      0.00000
     13      19.0442      0.00000
     14      21.1721      0.00000
     15      23.5249      0.00000
     16      24.4600      0.00000

 k-point    25 :       0.2000    0.2000    0.1250
  band No.  band energies     occupation 
      1       5.0718      1.00000
      2       6.3290      1.00000
      3       6.5875      1.00000
      4       6.6691      1.00000
      5       7.6482      1.00000
      6       7.9859      1.00000
      7       8.1389      1.00000
      8       8.8423      1.00000
      9       9.5624      1.00000
     10       9.6072      1.00000
     11      10.2353      1.00000
     12      15.6279      0.00000
     13      20.0733      0.00000
     14      21.6337      0.00000
     15      22.2988      0.00000
     16      28.1346      0.00000

 k-point    26 :       0.3000    0.2000    0.1250
  band No.  band energies     occupation 
      1       5.8833      1.00000
      2       6.2555      1.00000
      3       6.3262      1.00000
      4       6.8530      1.00000
      5       7.5935      1.00000
      6       7.9235      1.00000
      7       8.2714      1.00000
      8       9.2111      1.00000
      9       9.6062      1.00000
     10       9.8428      1.00000
     11      11.6277      0.00000
     12      16.6595      0.00000
     13      18.8199      0.00000
     14      20.6634      0.00000
     15      22.0878      0.00000
     16      25.1865      0.00000

 k-point    27 :       0.4000    0.2000    0.1250
  band No.  band energies     occupation 
      1       5.8944      1.00000
      2       6.2005      1.00000
      3       6.4388      1.00000
      4       6.9884      1.00000
      5       7.5191      1.00000
      6       7.9394      1.00000
      7       8.4119      1.00000
      8       9.5536      1.00000
      9       9.5849      1.00000
     10       9.7835      1.00000
     11      13.3573      0.00000
     12      14.6825      0.00000
     13      19.7920      0.00000
     14      20.9105      0.00000
     15      21.1866      0.00000
     16      25.1142      0.00000

 k-point    28 :       0.3000    0.3000    0.1250
[...]
      4       8.0866      1.00000
      5      10.4488      0.38112
      6      10.4488      0.38110
      7      10.7648      0.00000
      8      10.7648      0.00000
      9      11.8238      0.00000
     10      11.8238      0.00000
     11      12.7591      0.00000
     12      12.7591      0.00000
     13      18.8340      0.00000
     14      18.8340      0.00000
     15      29.3606      0.00000
     16      29.3606      0.00000

 k-point    63 :       0.1000    0.1000    0.5000
  band No.  band energies     occupation 
      1       4.7162      1.00000
      2       4.7162      1.00000
      3       8.6102      1.00000
      4       8.6102      1.00000
      5       9.2884      1.00000
      6       9.2884      1.00000
      7       9.8827      1.00000
      8       9.8827      1.00000
      9      11.2048      0.00000
     10      11.2048      0.00000
     11      11.5150      0.00000
     12      11.5150      0.00000
     13      26.7996      0.00000
     14      26.7996      0.00000
     15      29.5524      0.00000
     16      29.5524      0.00000

 k-point    64 :       0.2000    0.1000    0.5000
  band No.  band energies     occupation 
      1       5.6418      1.00000
      2       5.6418      1.00000
      3       8.4227      1.00000
      4       8.4227      1.00000
      5       9.1396      1.00000
      6       9.1396      1.00000
      7      10.2197      1.00000
      8      10.2197      1.00000
      9      11.3483      0.00000
     10      11.3483      0.00000
     11      11.8203      0.00000
     12      11.8203      0.00000
     13      25.8049      0.00000
     14      25.8049      0.00000
     15      27.7315      0.00000
     16      27.7316      0.00000

 k-point    65 :       0.3000    0.1000    0.5000
  band No.  band energies     occupation 
      1       6.3859      1.00000
      2       6.3859      1.00000
      3       8.2822      1.00000
      4       8.2822      1.00000
      5       9.4133      1.00000
      6       9.4133      1.00000
      7      10.3777      0.95641
      8      10.3777      0.95641
      9      11.6647      0.00000
     10      11.6647      0.00000
     11      12.3878      0.00000
     12      12.3878      0.00000
     13      22.0942      0.00000
     14      22.0942      0.00000
     15      27.4192      0.00000
     16      27.4192      0.00000

 k-point    66 :       0.4000    0.1000    0.5000
  band No.  band energies     occupation 
      1       6.6244      1.00000
      2       6.6244      1.00000
      3       8.1894      1.00000
      4       8.1894      1.00000
      5       9.8075      1.00000
      6       9.8075      1.00000
      7      10.6741      0.00000
      8      10.6741      0.00000
      9      11.7180      0.00000
     10      11.7180      0.00000
     11      13.3441      0.00000
     12      13.3441      0.00000
     13      19.3536      0.00000
     14      19.3536      0.00000
     15      26.7546      0.00000
     16      26.7546      0.00000

 k-point    67 :       0.2000    0.2000    0.5000
  band No.  band energies     occupation 
      1       6.4558      1.00000
      2       6.4558      1.00000
      3       8.3928      1.00000
      4       8.3928      1.00000
      5       8.9639      1.00000
      6       8.9639      1.00000
      7      10.2491      1.00000
      8      10.2491      1.00000
      9      11.7316      0.00000
     10      11.7316      0.00000
     11      12.4708      0.00000
     12      12.4708      0.00000
     13      24.0575      0.00000
     14      24.0575      0.00000
     15      24.9599      0.00000
     16      24.9599      0.00000

 k-point    68 :       0.3000    0.2000    0.5000
  band No.  band energies     occupation 
      1       6.9755      1.00000
      2       6.9755      1.00000
      3       8.3731      1.00000
      4       8.3731      1.00000
      5       9.0033      1.00000
      6       9.0033      1.00000
      7      10.3161      0.99972
      8      10.3161      0.99972
      9      11.7569      0.00000
     10      11.7569      0.00000
     11      13.9239      0.00000
     12      13.9239      0.00000
     13      20.8840      0.00000
     14      20.8840      0.00000
     15      23.6737      0.00000
     16      23.6737      0.00000

 k-point    69 :       0.4000    0.2000    0.5000
  band No.  band energies     occupation 
      1       7.1100      1.00000
      2       7.1100      1.00000
      3       8.3661      1.00000
      4       8.3661      1.00000
      5       9.0239      1.00000
      6       9.0239      1.00000
      7      10.4983      0.04446
      8      10.4983      0.04446
      9      11.6650      0.00000
     10      11.6650      0.00000
     11      15.0847      0.00000
     12      15.0847      0.00000
     13      19.0329      0.00000
     14      19.0329      0.00000
     15      23.3196      0.00000
     16      23.3196      0.00000

 k-point    70 :       0.3000    0.3000    0.5000
  band No.  band energies     occupation 
      1       7.5483      1.00000
      2       7.5483      1.00000
      3       8.2322      1.00000
      4       8.2322      1.00000
      5       8.7482      1.00000
      6       8.7482      1.00000
      7      10.3200      0.99958
      8      10.3200      0.99958
      9      11.6456      0.00000
     10      11.6456      0.00000
     11      16.0491      0.00000
     12      16.0491      0.00000
     13      19.4400      0.00000
     14      19.4400      0.00000
     15      21.2994      0.00000
     16      21.2994      0.00000


--------------------------------------------------------------------------------------------------------


 soft charge-density along one line, spin component           1
         0         1         2         3         4         5         6         7         8         9
 total charge-density along one line
 
 soft charge-density along one line, spin component           2
         0         1         2         3         4         5         6         7         8         9
 total charge-density along one line
 
 pseudopotential strength for first ion, spin component:           1
 -0.491   0.000   0.000  -0.000   0.000  -1.129   0.000   0.000
  0.000  -0.493   0.000  -0.000   0.000   0.000  -1.131   0.000
  0.000   0.000  -0.488   0.000  -0.000   0.000   0.000  -1.127
 -0.000  -0.000   0.000  -0.493  -0.000  -0.000  -0.000   0.000
  0.000   0.000  -0.000  -0.000  -0.491   0.000   0.000  -0.000
 -1.129   0.000   0.000  -0.000   0.000  -1.708   0.000   0.000
  0.000  -1.131   0.000  -0.000   0.000   0.000  -1.710   0.000
  0.000   0.000  -1.127   0.000  -0.000   0.000   0.000  -1.706
 -0.000  -0.000   0.000  -1.131  -0.000  -0.000  -0.000   0.000
  0.000   0.000  -0.000  -0.000  -1.129   0.000   0.000  -0.000
  0.000   0.000  -0.000   0.000  -0.000   0.000   0.000  -0.000
  0.000   0.000  -0.000   0.000  -0.000   0.000   0.000  -0.000
 -0.000  -0.000  -0.000   0.000  -0.001  -0.000  -0.000  -0.000
  0.000   0.000  -0.000  -0.000   0.000   0.000   0.000  -0.000
 -0.001   0.000   0.000   0.000  -0.000  -0.001   0.000   0.000
 -0.000  -0.000  -0.000   0.000  -0.001  -0.000  -0.000  -0.000
  0.000   0.000  -0.000  -0.000   0.000   0.000   0.000  -0.000
 -0.001   0.000   0.000   0.000  -0.000  -0.001   0.000   0.000
 pseudopotential strength for first ion, spin component:           2
  0.882  -0.000   0.000   0.000   0.000   0.186  -0.000   0.000
 -0.000   0.889  -0.000  -0.000  -0.000  -0.000   0.193  -0.000
  0.000  -0.000   0.871  -0.000  -0.000   0.000  -0.000   0.175
  0.000  -0.000  -0.000   0.889   0.000   0.000  -0.000  -0.000
  0.000  -0.000  -0.000   0.000   0.882   0.000  -0.000  -0.000
  0.186  -0.000   0.000   0.000   0.000  -0.449  -0.000   0.000
 -0.000   0.193  -0.000  -0.000  -0.000  -0.000  -0.442  -0.000
  0.000  -0.000   0.175  -0.000  -0.000   0.000  -0.000  -0.459
  0.000  -0.000  -0.000   0.193   0.000   0.000  -0.000  -0.000
  0.000  -0.000  -0.000   0.000   0.186   0.000  -0.000  -0.000
  0.000  -0.000   0.000  -0.000  -0.000   0.000  -0.000   0.000
  0.000  -0.000   0.000  -0.000  -0.000   0.000  -0.000   0.000
  0.000  -0.000   0.000   0.000  -0.000   0.000  -0.000   0.000
  0.000  -0.000  -0.000   0.000   0.000   0.000  -0.000  -0.000
 -0.000   0.000  -0.000   0.000   0.000  -0.000   0.000  -0.000
  0.000  -0.000   0.000   0.000  -0.000   0.000  -0.000   0.000
  0.000  -0.000  -0.000   0.000   0.000   0.000  -0.000  -0.000
 -0.000   0.000  -0.000   0.000   0.000  -0.000   0.000  -0.000
 total augmentation occupancy for first ion, spin component:           1
  2.994  -0.000   0.000   0.000  -0.000  -1.661   0.000  -0.000   0.000  -0.000   0.000  -0.000   0.000   0.000   0.044  -0.000
  0.000   3.104  -0.000  -0.000   0.000   0.000  -1.708  -0.000   0.000   0.000  -0.000   0.000  -0.000   0.000   0.000   0.000
  0.000  -0.000   2.854  -0.000   0.000  -0.000  -0.000  -1.608  -0.000  -0.000  -0.023  -0.000   0.000   0.000   0.000  -0.000
  0.000  -0.000  -0.000   3.104   0.000  -0.000   0.000   0.000  -1.708   0.000   0.000   0.000   0.000   0.000   0.000   0.000
  0.000  -0.000   0.000   0.000   2.994  -0.000   0.000  -0.000   0.000  -1.661   0.000   0.000   0.044   0.000   0.000  -0.003
 -1.661  -0.000  -0.000   0.000  -0.000   1.877  -0.000   0.000  -0.000   0.000  -0.000   0.000  -0.000   0.000  -0.060   0.000
  0.000  -1.708  -0.000   0.000   0.000   0.000   1.862   0.000   0.000  -0.000  -0.000  -0.000   0.000  -0.000   0.000  -0.000
 -0.000  -0.000  -1.608   0.000  -0.000   0.000   0.000   1.913   0.000   0.000   0.023  -0.000  -0.000   0.000  -0.000   0.000
 -0.000   0.000  -0.000  -1.708   0.000   0.000  -0.000   0.000   1.862   0.000   0.000   0.000   0.000   0.000  -0.000   0.000
 -0.000  -0.000  -0.000   0.000  -1.661   0.000   0.000   0.000   0.000   1.877   0.000   0.000  -0.060   0.000  -0.000   0.005
  0.000   0.000  -0.023   0.000   0.000  -0.000  -0.000   0.023   0.000   0.000   2.352  -0.279   0.000   0.000  -0.000   0.000
 -0.000   0.000  -0.000   0.000   0.000   0.000   0.000  -0.000   0.000   0.000  -0.279   0.042   0.000   0.000   0.000   0.000
  0.000   0.000   0.000   0.000   0.044   0.000   0.000  -0.000   0.000  -0.060   0.000   0.000   0.322  -0.000  -0.000  -0.031
  0.000   0.000   0.000   0.000  -0.000   0.000  -0.000   0.000  -0.000   0.000   0.000   0.000   0.000   0.329   0.000   0.000
  0.044   0.000   0.000   0.000  -0.000  -0.060   0.000   0.000   0.000   0.000  -0.000   0.000   0.000   0.000   0.322   0.000
 -0.000   0.000  -0.000   0.000  -0.003   0.000   0.000   0.000   0.000   0.005  -0.000   0.000  -0.031   0.000   0.000   0.003
  0.000  -0.000   0.000   0.000   0.000  -0.000   0.000   0.000   0.000   0.000   0.000   0.000   0.000  -0.031   0.000  -0.000
 -0.003   0.000  -0.000  -0.000   0.000   0.005  -0.000  -0.000   0.000  -0.000   0.000  -0.000   0.000   0.000  -0.031   0.000
 total augmentation occupancy for first ion, spin component:           2
  2.164   0.000   0.000   0.000  -0.000  -1.045   0.000   0.000   0.000  -0.000  -0.000   0.000  -0.000   0.000  -0.004   0.000
  0.000   2.185  -0.000  -0.000  -0.000  -0.000  -1.059   0.000   0.000   0.000  -0.000   0.000  -0.000   0.000  -0.000   0.000
  0.000  -0.000   2.159   0.000   0.000   0.000   0.000  -1.041   0.000  -0.000  -0.001  -0.001  -0.000   0.000  -0.000   0.000
  0.000  -0.000   0.000   2.185   0.000  -0.000   0.000   0.000  -1.059  -0.000   0.000   0.000  -0.000  -0.000   0.000   0.000
 -0.000   0.000   0.000  -0.000   2.164  -0.000   0.000  -0.000   0.000  -1.045   0.000  -0.000  -0.004   0.000   0.000   0.000
 -1.045   0.000   0.000  -0.000  -0.000   0.308   0.000  -0.000   0.000   0.000   0.000  -0.000   0.000   0.000   0.008  -0.000
  0.000  -1.059  -0.000   0.000   0.000   0.000   0.325  -0.000  -0.000  -0.000  -0.000  -0.000   0.000   0.000   0.000   0.000
  0.000   0.000  -1.041   0.000  -0.000  -0.000   0.000   0.293   0.000   0.000  -0.001   0.001   0.000   0.000   0.000  -0.000
  0.000   0.000   0.000  -1.059   0.000   0.000  -0.000   0.000   0.325   0.000   0.000   0.000  -0.000   0.000   0.000   0.000
 -0.000  -0.000  -0.000  -0.000  -1.045  -0.000   0.000   0.000  -0.000   0.308  -0.000  -0.000   0.008  -0.000  -0.000  -0.000
 -0.000   0.000  -0.001   0.000   0.000   0.000  -0.000  -0.001   0.000   0.000  -0.306   0.094   0.000   0.000   0.000   0.000
  0.000  -0.000  -0.001   0.000   0.000  -0.000   0.000   0.001   0.000   0.000   0.094  -0.016   0.000   0.000   0.000   0.000
 -0.000  -0.000  -0.000   0.000  -0.004   0.000   0.000   0.000   0.000   0.008   0.000  -0.000  -0.033   0.000   0.000   0.005
  0.000   0.000   0.000  -0.000   0.000   0.000   0.000   0.000   0.000  -0.000   0.000   0.000   0.000  -0.038   0.000   0.000
 -0.004   0.000   0.000   0.000   0.000   0.008   0.000   0.000   0.000   0.000  -0.000   0.000   0.000   0.000  -0.033   0.000
  0.000   0.000   0.000   0.000   0.000  -0.000   0.000  -0.000   0.000  -0.000   0.000  -0.000   0.005   0.000  -0.000  -0.001
  0.000   0.000   0.000   0.000  -0.000  -0.000   0.000   0.000   0.000   0.000   0.000   0.000   0.000   0.005   0.000   0.000
  0.000   0.000  -0.000   0.000   0.000  -0.000   0.000  -0.000  -0.000   0.000  -0.000   0.000   0.000   0.000   0.005   0.000


------------------------ aborting loop because EDIFF is reached ----------------------------------------





 total charge

# of ion       s       p       d       tot
------------------------------------------
    1        0.498   0.540   7.264   8.302
    2        0.498   0.540   7.264   8.302
--------------------------------------------------
tot          0.997   1.080  14.528  16.604



 magnetization (x)

# of ion       s       p       d       tot
------------------------------------------
    1       -0.013  -0.051   1.741   1.677
    2       -0.013  -0.051   1.741   1.677
--------------------------------------------------
tot         -0.026  -0.102   3.482   3.354
 
    CHARGE:  cpu time      0.0181: real time      0.0182
    FORLOC:  cpu time      0.0001: real time      0.0001
    FORNL :  cpu time      0.0164: real time      0.0165
    STRESS:  cpu time      0.0508: real time      0.0510
    FORCOR:  cpu time      0.0040: real time      0.0040
    FORHAR:  cpu time      0.0004: real time      0.0004
    MIXING:  cpu time      0.0002: real time      0.0002
    OFIELD:  cpu time      0.0000: real time      0.0000

  FORCE on cell =-STRESS in cart. coord.  units (eV):
  Direction    XX          YY          ZZ          XY          YZ          ZX
  --------------------------------------------------------------------------------------
  Alpha Z    79.41567    79.41567    79.41567
  Ewald    -512.39541  -512.39541  -505.49118     0.00000     0.00000     0.00000
  Hartree    85.93706    85.93706    89.06806    -0.00000    -0.00000    -0.00000
  E(xc)     -92.68140   -92.68140   -92.68657    -0.00000    -0.00000    -0.00000
  Local     -14.16010   -14.16022   -23.87515    -0.00010    -0.00000    -0.00000
  n-local    -8.93496    -8.69043    -8.87840    -6.34772     1.76542     1.75888
  augment   310.85748   310.85760   310.74017     0.00011    -0.00000    -0.00000
  Kinetic   153.75749   150.96265   152.17596     4.32768     0.21734     0.84599
  Fock        0.00000     0.00000     0.00000     0.00000     0.00000     0.00000
  -------------------------------------------------------------------------------------
  Total       0.52068     0.52068     0.46856     0.00000    -0.00000     0.00000
  in kB      39.10155    39.10155    35.18787     0.00000    -0.00000     0.00000
  external pressure =       37.80 kB  Pullay stress =        0.00 kB


 VOLUME and BASIS-vectors are now :
 -----------------------------------------------------------------------------
  energy-cutoff  :      400.00
  volume of cell :       21.33
      direct lattice vectors                 reciprocal lattice vectors
     2.478540073  0.000000000  0.000000000     0.403463317  0.232939655  0.000000000
    -1.239270036  2.146478667  0.000000000     0.000000000  0.465879310  0.000000000
     0.000000000  0.000000000  4.010176963     0.000000000  0.000000000  0.249365554

  length of vectors
     2.478540073  2.478540073  4.010176963     0.465879310  0.465879310  0.249365554


 FORCES acting on ions
    electron-ion (+dipol)            ewald-force                    non-local-force                 convergence-correction
 -----------------------------------------------------------------------------------------------
   -.554E-05 0.320E-05 -.177E-14   0.102E-11 -.598E-12 -.222E-13   -.121E-16 0.000E+00 0.000E+00   0.183E-08 -.106E-08 0.293E-13
   -.397E-05 0.229E-05 -.931E-12   -.103E-11 0.588E-12 0.222E-13   0.121E-16 0.000E+00 0.000E+00   -.183E-08 0.105E-08 -.855E-13
 -----------------------------------------------------------------------------------------------
   -.951E-05 0.549E-05 -.933E-12   -.804E-14 -.945E-14 0.000E+00   0.000E+00 0.000E+00 0.000E+00   0.549E-11 -.313E-11 -.562E-13
 
 
 POSITION                                       TOTAL-FORCE (eV/Angst)
 -----------------------------------------------------------------------------------
      0.00000      0.00000      0.00000         0.000000      0.000000      0.000000
      0.00000      1.43099      2.00509        -0.000000     -0.000000      0.000000
 -----------------------------------------------------------------------------------
    total drift:                               -0.000010      0.000005     -0.000000


--------------------------------------------------------------------------------------------------------



  FREE ENERGIE OF THE ION-ELECTRON SYSTEM (eV)
  ---------------------------------------------------
  free  energy   TOTEN  =       -14.06864201 eV

  energy  without entropy=      -14.06612278  energy(sigma->0) =      -14.06738240
 


--------------------------------------------------------------------------------------------------------


    POTLOK:  cpu time      0.0093: real time      0.0093


--------------------------------------------------------------------------------------------------------




--------------------------------------------------------------------------------------------------------


  
 reached required accuracy - stopping structural energy minimisation
 writing wavefunctions
     LOOP+:  cpu time      6.4884: real time      6.6355
    4ORBIT:  cpu time      0.0000: real time      0.0000



 total charge

# of ion       s       p       d       tot
------------------------------------------
    1        0.498   0.540   7.264   8.302
    2        0.498   0.540   7.264   8.302
--------------------------------------------------
tot          0.997   1.080  14.528  16.604



 magnetization (x)

# of ion       s       p       d       tot
------------------------------------------
    1       -0.013  -0.051   1.741   1.677
    2       -0.013  -0.051   1.741   1.677
--------------------------------------------------
tot         -0.026  -0.102   3.482   3.354
 

 total amount of memory used by VASP MPI-rank0    32033. kBytes
=======================================================================

   base      :      30000. kBytes
   nonl-proj :        687. kBytes
   fftplans  :        153. kBytes
   grid      :        374. kBytes
   one-center:         31. kBytes
   wavefun   :        788. kBytes
 
  
  
 General timing and accounting informations for this job:
 ========================================================
  
                  Total CPU time used (sec):        7.431
                            User time (sec):        6.886
                          System time (sec):        0.545
                         Elapsed time (sec):        9.274
  
                   Maximum memory used (kb):      222160.
                   Average memory used (kb):          N/A
  
                          Minor page faults:        20549
                          Major page faults:           66
                 Voluntary context switches:         2206
