PROCAR lm decomposed
# of k-points:   95         # of bands:   24         # of ions:    2

 k-point     1 :    0.00000000 0.00000000 0.00000000     weight = 0.00086806

band     1 # energy    1.51693271 # occ.  1.00000000
 
ion      s     py     pz     px    dxy    dyz    dz2    dxz  x2-y2    tot
    1  0.371  0.000  0.000  0.000  0.000  0.000  0.000  0.000  0.000  0.371
    2  0.371  0.000  0.000  0.000  0.000  0.000  0.000  0.000  0.000  0.371
tot    0.742  0.000  0.000  0.000  0.000  0.000  0.000  0.000  0.000  0.742
 
band     2 # energy    5.31376829 # occ.  1.00000000
 
ion      s     py     pz     px    dxy    dyz    dz2    dxz  x2-y2    tot
    1  0.081  0.000  0.000  0.000  0.000  0.000  0.369  0.000  0.000  0.450
    2  0.081  0.000  0.000  0.000  0.000  0.000  0.369  0.000  0.000  0.450
tot    0.162  0.000  0.000  0.000  0.000  0.000  0.738  0.000  0.000  0.900
 
band     3 # energy    7.90441949 # occ.  1.00000000
 
ion      s     py     pz     px    dxy    dyz    dz2    dxz  x2-y2    tot
    1  0.000  0.000  0.000  0.000  0.000  0.000  0.487  0.000  0.000  0.487
    2  0.000  0.000  0.000  0.000  0.000  0.000  0.487  0.000  0.000  0.487
tot    0.000  0.000  0.000  0.000  0.000  0.000  0.974  0.000  0.000  0.974
 
band     4 # energy    7.90927646 # occ.  1.00000000
 
ion      s     py     pz     px    dxy    dyz    dz2    dxz  x2-y2    tot
    1  0.000  0.000  0.000  0.001  0.483  0.000  0.000  0.000  0.000  0.483
    2  0.000  0.000  0.000  0.001  0.483  0.000  0.000  0.000  0.000  0.483
tot    0.000  0.000  0.000  0.001  0.966  0.000  0.000  0.000  0.000  0.967
 
band     5 # energy    7.90927662 # occ.  1.00000000
 
ion      s     py     pz     px    dxy    dyz    dz2    dxz  x2-y2    tot
    1  0.000  0.001  0.000  0.000  0.000  0.000  0.000  0.000  0.483  0.483
    2  0.000  0.001  0.000  0.000  0.000  0.000  0.000  0.000  0.483  0.483
tot    0.000  0.001  0.000  0.000  0.000  0.000  0.000  0.000  0.966  0.967
 
band     6 # energy    8.23451495 # occ.  1.00000000
 
ion      s     py     pz     px    dxy    dyz    dz2    dxz  x2-y2    tot
    1  0.000  0.000  0.000  0.001  0.487  0.000  0.000  0.000  0.000  0.488
    2  0.000  0.000  0.000  0.001  0.487  0.000  0.000  0.000  0.000  0.488
tot    0.000  0.000  0.000  0.002  0.974  0.000  0.000  0.000  0.000  0.976
 
band     7 # energy    8.23451508 # occ.  1.00000000
 
ion      s     py     pz     px    dxy    dyz    dz2    dxz  x2-y2    tot
    1  0.000  0.001  0.000  0.000  0.000  0.000  0.000  0.000  0.487  0.488
    2  0.000  0.001  0.000  0.000  0.000  0.000  0.000  0.000  0.487  0.488
tot    0.000  0.002  0.000  0.000  0.000  0.000  0.000  0.000  0.974  0.976
 
band     8 # energy    8.59111874 # occ.  1.00000000
 
ion      s     py     pz     px    dxy    dyz    dz2    dxz  x2-y2    tot
    1  0.000  0.000  0.000  0.000  0.000  0.000  0.000  0.490  0.000  0.490
    2  0.000  0.000  0.000  0.000  0.000  0.000  0.000  0.490  0.000  0.490
tot    0.000  0.000  0.000  0.000  0.000  0.000  0.000  0.980  0.000  0.980
 
band     9 # energy    8.59111879 # occ.  1.00000000
 
ion      s     py     pz     px    dxy    dyz    dz2    dxz  x2-y2    tot
    1  0.000  0.000  0.000  0.000  0.000  0.490  0.000  0.000  0.000  0.490
    2  0.000  0.000  0.000  0.000  0.000  0.490  0.000  0.000  0.000  0.490
tot    0.000  0.000  0.000  0.000  0.000  0.980  0.000  0.000  0.000  0.980
 
band    10 # energy    9.73395842 # occ.  1.00000000
 
ion      s     py     pz     px    dxy    dyz    dz2    dxz  x2-y2    tot
    1  0.000  0.000  0.000  0.000  0.000  0.000  0.000  0.492  0.000  0.492
    2  0.000  0.000  0.000  0.000  0.000  0.000  0.000  0.492  0.000  0.492
tot    0.000  0.000  0.000  0.000  0.000  0.000  0.000  0.985  0.000  0.985
 
band    11 # energy    9.73395852 # occ.  1.00000000
 
ion      s     py     pz     px    dxy    dyz    dz2    dxz  x2-y2    tot
    1  0.000  0.000  0.000  0.000  0.000  0.492  0.000  0.000  0.000  0.492
    2  0.000  0.000  0.000  0.000  0.000  0.492  0.000  0.000  0.000  0.492
tot    0.000  0.000  0.000  0.000  0.000  0.985  0.000  0.000  0.000  0.985
 
band    12 # energy   10.49024465 # occ.  0.72065015
 
ion      s     py     pz     px    dxy    dyz    dz2    dxz  x2-y2    tot
    1  0.000  0.000  0.354  0.000  0.000  0.000  0.000  0.000  0.000  0.354
    2  0.000  0.000  0.354  0.000  0.000  0.000  0.000  0.000  0.000  0.354
tot    0.000  0.000  0.708  0.000  0.000  0.000  0.000  0.000  0.000  0.708
 
band    13 # energy   17.10741087 # occ.  0.00000000
 
ion      s     py     pz     px    dxy    dyz    dz2    dxz  x2-y2    tot
    1  0.226  0.000  0.000  0.000  0.000  0.000  0.232  0.000  0.000  0.458
    2  0.226  0.000  0.000  0.000  0.000  0.000  0.232  0.000  0.000  0.458
tot    0.451  0.000  0.000  0.000  0.000  0.000  0.465  0.000  0.000  0.916
 
band    14 # energy   32.65984555 # occ.  0.00000000
 
ion      s     py     pz     px    dxy    dyz    dz2    dxz  x2-y2    tot
    1  0.007  0.000  0.000  0.000  0.000  0.000  0.033  0.000  0.000  0.040
    2  0.007  0.000  0.000  0.000  0.000  0.000  0.033  0.000  0.000  0.040
tot    0.014  0.000  0.000  0.000  0.000  0.000  0.066  0.000  0.000  0.079
 
band    15 # energy   35.39870490 # occ.  0.00000000
 
ion      s     py     pz     px    dxy    dyz    dz2    dxz  x2-y2    tot
    1  0.000  0.270  0.000  0.000  0.000  0.000  0.000  0.000  0.125  0.395
    2  0.000  0.270  0.000  0.000  0.000  0.000  0.000  0.000  0.125  0.395
tot    0.000  0.540  0.000  0.000  0.000  0.000  0.000  0.000  0.250  0.790
 
band    16 # energy   35.39870580 # occ.  0.00000000
 
ion      s     py     pz     px    dxy    dyz    dz2    dxz  x2-y2    tot
    1  0.000  0.000  0.000  0.270  0.125  0.000  0.000  0.000  0.000  0.395
    2  0.000  0.000  0.000  0.270  0.125  0.000  0.000  0.000  0.000  0.395
tot    0.000  0.000  0.000  0.540  0.250  0.000  0.000  0.000  0.000  0.790
 
band    17 # energy   35.84220576 # occ.  0.00000000
 
ion      s     py     pz     px    dxy    dyz    dz2    dxz  x2-y2    tot
    1  0.023  0.000  0.000  0.000  0.000  0.000  0.075  0.000  0.000  0.098
    2  0.023  0.000  0.000  0.000  0.000  0.000  0.075  0.000  0.000  0.098
tot    0.046  0.000  0.000  0.000  0.000  0.000  0.150  0.000  0.000  0.196
 
band    18 # energy   36.28279604 # occ.  0.00000000
 
ion      s     py     pz     px    dxy    dyz    dz2    dxz  x2-y2    tot
    1  0.000  0.000  0.027  0.000  0.000  0.000  0.000  0.000  0.000  0.027
    2  0.000  0.000  0.027  0.000  0.000  0.000  0.000  0.000  0.000  0.027
tot    0.000  0.000  0.054  0.000  0.000  0.000  0.000  0.000  0.000  0.054
 
band    19 # energy   36.73222623 # occ.  0.00000000
 
ion      s     py     pz     px    dxy    dyz    dz2    dxz  x2-y2    tot
    1  0.000  0.000  0.000  0.087  0.391  0.000  0.000  0.000  0.000  0.478
    2  0.000  0.000  0.000  0.087  0.391  0.000  0.000  0.000  0.000  0.478
tot    0.000  0.000  0.000  0.174  0.782  0.000  0.000  0.000  0.000  0.956
 
band    20 # energy   36.73222639 # occ.  0.00000000
 
ion      s     py     pz     px    dxy    dyz    dz2    dxz  x2-y2    tot
    1  0.000  0.087  0.000  0.000  0.000  0.000  0.000  0.000  0.391  0.478
    2  0.000  0.087  0.000  0.000  0.000  0.000  0.000  0.000  0.391  0.478
tot    0.000  0.174  0.000  0.000  0.000  0.000  0.000  0.000  0.782  0.956
 
band    21 # energy   41.30081720 # occ.  0.00000000
 
ion      s     py     pz     px    dxy    dyz    dz2    dxz  x2-y2    tot
    1  0.000  0.000  0.000  0.000  0.000  0.000  0.000  0.138  0.000  0.138
    2  0.000  0.000  0.000  0.000  0.000  0.000  0.000  0.138  0.000  0.138
tot    0.000  0.000  0.000  0.000  0.000  0.000  0.000  0.276  0.000  0.276
 
band    22 # energy   41.30081730 # occ.  0.00000000
 
ion      s     py     pz     px    dxy    dyz    dz2    dxz  x2-y2    tot
    1  0.000  0.000  0.000  0.000  0.000  0.138  0.000  0.000  0.000  0.138
    2  0.000  0.000  0.000  0.000  0.000  0.138  0.000  0.000  0.000  0.138
tot    0.000  0.000  0.000  0.000  0.000  0.276  0.000  0.000  0.000  0.276
 
band    23 # energy   42.30866294 # occ.  0.00000000
 
ion      s     py     pz     px    dxy    dyz    dz2    dxz  x2-y2    tot
    1  0.004  0.000  0.000  0.000  0.000  0.000  0.632  0.000  0.000  0.637
    2  0.004  0.000  0.000  0.000  0.000  0.000  0.632  0.000  0.000  0.637
tot    0.008  0.000  0.000  0.000  0.000  0.000  1.265  0.000  0.000  1.273
 
band    24 # energy   42.72884060 # occ.  0.00000000
 
ion      s     py     pz     px    dxy    dyz    dz2    dxz  x2-y2    tot
    1  0.000  0.000  0.049  0.000  0.000  0.000  0.000  0.000  0.000  0.049
    2  0.000  0.000  0.049  0.000  0.000  0.000  0.000  0.000  0.000  0.049
tot    0.000  0.000  0.097  0.000  0.000  0.000  0.000  0.000  0.000  0.097
 

 k-point     2 :    0.08333333 0.00000000 0.00000000     weight = 0.00520833

band     1 # energy    1.76341580 # occ.  1.00000000
 
ion      s     py     pz     px    dxy    dyz    dz2    dxz  x2-y2    tot
    1  0.362  0.002  0.000  0.006  0.000  0.000  0.000  0.000  0.000  0.371
    2  0.362  0.002  0.000  0.006  0.000  0.000  0.000  0.000  0.000  0.371
tot    0.725  0.004  0.000  0.013  0.000  0.000  0.000  0.000  0.000  0.742
 
band     2 # energy    5.46092326 # occ.  1.00000000
 
ion      s     py     pz     px    dxy    dyz    dz2    dxz  x2-y2    tot
    1  0.073  0.001  0.000  0.004  0.002  0.000  0.370  0.000  0.001  0.451
    2  0.073  0.001  0.000  0.004  0.002  0.000  0.370  0.000  0.001  0.451
tot    0.147  0.003  0.000  0.008  0.004  0.000  0.739  0.000  0.001  0.902
 
band     3 # energy    7.67116917 # occ.  1.00000000
 
ion      s     py     pz     px    dxy    dyz    dz2    dxz  x2-y2    tot
    1  0.000  0.000  0.000  0.001  0.239  0.000  0.161  0.000  0.080  0.482
    2  0.000  0.000  0.000  0.001  0.239  0.000  0.161  0.000  0.080  0.482
tot    0.000  0.001  0.000  0.002  0.478  0.000  0.323  0.000  0.159  0.963
 
band     4 # energy    8.02550035 # occ.  1.00000000
 
ion      s     py     pz     px    dxy    dyz    dz2    dxz  x2-y2    tot
    1  0.000  0.001  0.000  0.000  0.121  0.000  0.000  0.000  0.362  0.484
    2  0.000  0.001  0.000  0.000  0.121  0.000  0.000  0.000  0.362  0.484
tot    0.000  0.002  0.000  0.001  0.241  0.000  0.000  0.000  0.724  0.967
 
band     5 # energy    8.10286380 # occ.  1.00000000
 
ion      s     py     pz     px    dxy    dyz    dz2    dxz  x2-y2    tot
    1  0.000  0.000  0.000  0.000  0.152  0.000  0.284  0.000  0.051  0.487
    2  0.000  0.000  0.000  0.000  0.152  0.000  0.284  0.000  0.051  0.487
tot    0.000  0.000  0.000  0.001  0.303  0.000  0.568  0.000  0.101  0.973
 
band     6 # energy    8.18828539 # occ.  1.00000000
 
ion      s     py     pz     px    dxy    dyz    dz2    dxz  x2-y2    tot
    1  0.001  0.000  0.000  0.001  0.331  0.000  0.043  0.000  0.110  0.487
    2  0.001  0.000  0.000  0.001  0.331  0.000  0.043  0.000  0.110  0.487
tot    0.002  0.000  0.000  0.001  0.662  0.000  0.086  0.000  0.221  0.973
 
band     7 # energy    8.33675119 # occ.  1.00000000
 
ion      s     py     pz     px    dxy    dyz    dz2    dxz  x2-y2    tot
    1  0.000  0.001  0.000  0.000  0.122  0.000  0.000  0.000  0.365  0.488
    2  0.000  0.001  0.000  0.000  0.122  0.000  0.000  0.000  0.365  0.488
tot    0.000  0.002  0.000  0.001  0.243  0.000  0.000  0.000  0.730  0.976
 
band     8 # energy    8.43738375 # occ.  1.00000000
 
ion      s     py     pz     px    dxy    dyz    dz2    dxz  x2-y2    tot
    1  0.000  0.000  0.012  0.000  0.000  0.118  0.000  0.353  0.000  0.482
    2  0.000  0.000  0.012  0.000  0.000  0.118  0.000  0.353  0.000  0.482
tot    0.000  0.000  0.024  0.000  0.000  0.235  0.000  0.705  0.000  0.965
 
band     9 # energy    8.51804473 # occ.  1.00000000
 
ion      s     py     pz     px    dxy    dyz    dz2    dxz  x2-y2    tot
    1  0.000  0.000  0.000  0.000  0.000  0.367  0.000  0.122  0.000  0.489
    2  0.000  0.000  0.000  0.000  0.000  0.367  0.000  0.122  0.000  0.489
tot    0.000  0.000  0.000  0.000  0.000  0.734  0.000  0.245  0.000  0.978
 
band    10 # energy    8.94919973 # occ.  1.00000000
 
ion      s     py     pz     px    dxy    dyz    dz2    dxz  x2-y2    tot
    1  0.000  0.000  0.091  0.000  0.000  0.090  0.000  0.271  0.000  0.452
    2  0.000  0.000  0.091  0.000  0.000  0.090  0.000  0.271  0.000  0.452
tot    0.000  0.000  0.182  0.000  0.000  0.180  0.000  0.541  0.000  0.904
 
band    11 # energy    9.76532295 # occ.  1.00000000
 
ion      s     py     pz     px    dxy    dyz    dz2    dxz  x2-y2    tot
    1  0.000  0.000  0.000  0.000  0.000  0.370  0.000  0.123  0.000  0.493
    2  0.000  0.000  0.000  0.000  0.000  0.370  0.000  0.123  0.000  0.493
tot    0.000  0.000  0.000  0.000  0.000  0.740  0.000  0.247  0.000  0.986
 
band    12 # energy   11.59508415 # occ.  0.00000000
 
ion      s     py     pz     px    dxy    dyz    dz2    dxz  x2-y2    tot
    1  0.000  0.000  0.247  0.000  0.000  0.039  0.000  0.116  0.000  0.402
    2  0.000  0.000  0.247  0.000  0.000  0.039  0.000  0.116  0.000  0.402
tot    0.000  0.000  0.494  0.000  0.000  0.078  0.000  0.233  0.000  0.805
 
band    13 # energy   17.14886711 # occ.  0.00000000
 
ion      s     py     pz     px    dxy    dyz    dz2    dxz  x2-y2    tot
    1  0.222  0.002  0.000  0.005  0.000  0.000  0.226  0.000  0.000  0.455
    2  0.222  0.002  0.000  0.005  0.000  0.000  0.226  0.000  0.000  0.455
tot    0.443  0.004  0.000  0.011  0.000  0.000  0.452  0.000  0.000  0.911
 
band    14 # energy   30.85818224 # occ.  0.00000000
 
ion      s     py     pz     px    dxy    dyz    dz2    dxz  x2-y2    tot
    1  0.014  0.023  0.000  0.069  0.112  0.000  0.024  0.000  0.037  0.280
    2  0.014  0.023  0.000  0.069  0.112  0.000  0.024  0.000  0.037  0.280
tot    0.028  0.046  0.000  0.138  0.225  0.000  0.049  0.000  0.075  0.560
 
band    15 # energy   33.21983196 # occ.  0.00000000
 
ion      s     py     pz     px    dxy    dyz    dz2    dxz  x2-y2    tot
    1  0.022  0.022  0.000  0.067  0.065  0.000  0.040  0.000  0.022  0.239
    2  0.022  0.022  0.000  0.067  0.065  0.000  0.040  0.000  0.022  0.239
tot    0.044  0.045  0.000  0.134  0.131  0.000  0.081  0.000  0.044  0.479
 
band    16 # energy   33.24259510 # occ.  0.00000000
 
ion      s     py     pz     px    dxy    dyz    dz2    dxz  x2-y2    tot
    1  0.000  0.175  0.000  0.058  0.043  0.000  0.000  0.000  0.130  0.407
    2  0.000  0.175  0.000  0.058  0.043  0.000  0.000  0.000  0.130  0.407
tot    0.000  0.351  0.000  0.117  0.086  0.000  0.000  0.000  0.259  0.813
 
band    17 # energy   36.29469368 # occ.  0.00000000
 
ion      s     py     pz     px    dxy    dyz    dz2    dxz  x2-y2    tot
    1  0.000  0.000  0.010  0.000  0.000  0.012  0.000  0.037  0.000  0.060
    2  0.000  0.000  0.010  0.000  0.000  0.012  0.000  0.037  0.000  0.060
tot    0.000  0.000  0.020  0.000  0.000  0.025  0.000  0.074  0.000  0.119
 
band    18 # energy   36.74344238 # occ.  0.00000000
 
ion      s     py     pz     px    dxy    dyz    dz2    dxz  x2-y2    tot
    1  0.003  0.016  0.000  0.049  0.039  0.000  0.035  0.000  0.013  0.155
    2  0.003  0.016  0.000  0.049  0.039  0.000  0.035  0.000  0.013  0.155
tot    0.007  0.032  0.000  0.097  0.078  0.000  0.069  0.000  0.026  0.310
 
band    19 # energy   38.13892556 # occ.  0.00000000
 
ion      s     py     pz     px    dxy    dyz    dz2    dxz  x2-y2    tot
    1  0.000  0.000  0.030  0.000  0.000  0.029  0.000  0.086  0.000  0.145
    2  0.000  0.000  0.030  0.000  0.000  0.029  0.000  0.086  0.000  0.145
tot    0.000  0.000  0.060  0.000  0.000  0.058  0.000  0.173  0.000  0.290
 
band    20 # energy   39.11271379 # occ.  0.00000000
 
ion      s     py     pz     px    dxy    dyz    dz2    dxz  x2-y2    tot
    1  0.000  0.082  0.000  0.027  0.090  0.000  0.000  0.000  0.269  0.468
    2  0.000  0.082  0.000  0.027  0.090  0.000  0.000  0.000  0.269  0.468
tot    0.000  0.163  0.000  0.054  0.180  0.000  0.000  0.000  0.539  0.936
 
band    21 # energy   39.88173885 # occ.  0.00000000
 
ion      s     py     pz     px    dxy    dyz    dz2    dxz  x2-y2    tot
    1  0.006  0.037  0.000  0.112  0.137  0.000  0.006  0.000  0.046  0.344
    2  0.006  0.037  0.000  0.112  0.137  0.000  0.006  0.000  0.046  0.344
tot    0.013  0.074  0.000  0.223  0.274  0.000  0.011  0.000  0.091  0.687
 
band    22 # energy   40.79512752 # occ.  0.00000000
 
ion      s     py     pz     px    dxy    dyz    dz2    dxz  x2-y2    tot
    1  0.000  0.000  0.000  0.000  0.000  0.189  0.000  0.063  0.000  0.253
    2  0.000  0.000  0.000  0.000  0.000  0.189  0.000  0.063  0.000  0.253
tot    0.000  0.000  0.000  0.000  0.000  0.379  0.000  0.126  0.000  0.505
 
band    23 # energy   41.87944990 # occ.  0.00000000
 
ion      s     py     pz     px    dxy    dyz    dz2    dxz  x2-y2    tot
    1  0.002  0.008  0.000  0.023  0.049  0.000  0.504  0.000  0.016  0.602
    2  0.002  0.008  0.000  0.023  0.049  0.000  0.504  0.000  0.016  0.602
tot    0.003  0.015  0.000  0.046  0.099  0.000  1.008  0.000  0.033  1.204
 
band    24 # energy   42.11199467 # occ.  0.00000000
 
ion      s     py     pz     px    dxy    dyz    dz2    dxz  x2-y2    tot
    1  0.000  0.000  0.193  0.000  0.000  0.045  0.000  0.134  0.000  0.372
    2  0.000  0.000  0.193  0.000  0.000  0.045  0.000  0.134  0.000  0.372
tot    0.000  0.000  0.386  0.000  0.000  0.089  0.000  0.268  0.000  0.744
 

 k-point     3 :    0.16666667-0.00000000 0.00000000     weight = 0.00520833

band     1 # energy    2.47576929 # occ.  1.00000000
 
ion      s     py     pz     px    dxy    dyz    dz2    dxz  x2-y2    tot
    1  0.336  0.008  0.000  0.024  0.002  0.000  0.001  0.000  0.001  0.372
    2  0.336  0.008  0.000  0.024  0.002  0.000  0.001  0.000  0.001  0.372
tot    0.673  0.016  0.000  0.048  0.004  0.000  0.002  0.000  0.001  0.745
 
band     2 # energy    5.82341382 # occ.  1.00000000
 
ion      s     py     pz     px    dxy    dyz    dz2    dxz  x2-y2    tot
    1  0.052  0.004  0.000  0.012  0.019  0.000  0.360  0.000  0.006  0.454
    2  0.052  0.004  0.000  0.012  0.019  0.000  0.360  0.000  0.006  0.454
tot    0.105  0.008  0.000  0.024  0.039  0.000  0.719  0.000  0.013  0.908
 
band     3 # energy    7.38890000 # occ.  1.00000000
 
ion      s     py     pz     px    dxy    dyz    dz2    dxz  x2-y2    tot
    1  0.000  0.002  0.000  0.005  0.265  0.000  0.115  0.000  0.088  0.475
    2  0.000  0.002  0.000  0.005  0.265  0.000  0.115  0.000  0.088  0.475
tot    0.001  0.003  0.000  0.009  0.531  0.000  0.230  0.000  0.177  0.950
 
band     4 # energy    7.71698751 # occ.  1.00000000
 
ion      s     py     pz     px    dxy    dyz    dz2    dxz  x2-y2    tot
    1  0.000  0.000  0.063  0.000  0.000  0.097  0.000  0.292  0.000  0.452
    2  0.000  0.000  0.063  0.000  0.000  0.097  0.000  0.292  0.000  0.452
tot    0.000  0.000  0.125  0.000  0.000  0.195  0.000  0.585  0.000  0.905
 
band     5 # energy    8.01332196 # occ.  1.00000000
 
ion      s     py     pz     px    dxy    dyz    dz2    dxz  x2-y2    tot
    1  0.004  0.001  0.000  0.002  0.315  0.000  0.056  0.000  0.105  0.483
    2  0.004  0.001  0.000  0.002  0.315  0.000  0.056  0.000  0.105  0.483
tot    0.009  0.001  0.000  0.003  0.631  0.000  0.113  0.000  0.210  0.967
 
band     6 # energy    8.33791653 # occ.  1.00000000
 
ion      s     py     pz     px    dxy    dyz    dz2    dxz  x2-y2    tot
    1  0.000  0.000  0.000  0.000  0.000  0.366  0.000  0.122  0.000  0.487
    2  0.000  0.000  0.000  0.000  0.000  0.366  0.000  0.122  0.000  0.487
tot    0.000  0.000  0.000  0.000  0.000  0.731  0.000  0.244  0.000  0.975
 
band     7 # energy    8.35362843 # occ.  1.00000000
 
ion      s     py     pz     px    dxy    dyz    dz2    dxz  x2-y2    tot
    1  0.000  0.002  0.000  0.001  0.121  0.000  0.000  0.000  0.362  0.484
    2  0.000  0.002  0.000  0.001  0.121  0.000  0.000  0.000  0.362  0.484
tot    0.000  0.003  0.000  0.001  0.241  0.000  0.000  0.000  0.723  0.968
 
band     8 # energy    8.41600940 # occ.  1.00000000
 
ion      s     py     pz     px    dxy    dyz    dz2    dxz  x2-y2    tot
    1  0.002  0.000  0.000  0.001  0.112  0.000  0.334  0.000  0.037  0.487
    2  0.002  0.000  0.000  0.001  0.112  0.000  0.334  0.000  0.037  0.487
tot    0.003  0.001  0.000  0.002  0.225  0.000  0.668  0.000  0.075  0.974
 
band     9 # energy    8.56051299 # occ.  1.00000000
 
ion      s     py     pz     px    dxy    dyz    dz2    dxz  x2-y2    tot
    1  0.000  0.000  0.037  0.000  0.000  0.109  0.000  0.328  0.000  0.474
    2  0.000  0.000  0.037  0.000  0.000  0.109  0.000  0.328  0.000  0.474
tot    0.000  0.000  0.074  0.000  0.000  0.219  0.000  0.656  0.000  0.949
 
band    10 # energy    8.62434591 # occ.  1.00000000
 
ion      s     py     pz     px    dxy    dyz    dz2    dxz  x2-y2    tot
    1  0.000  0.002  0.000  0.001  0.122  0.000  0.000  0.000  0.365  0.489
    2  0.000  0.002  0.000  0.001  0.122  0.000  0.000  0.000  0.365  0.489
tot    0.000  0.003  0.000  0.001  0.243  0.000  0.000  0.000  0.730  0.977
 
band    11 # energy    9.83233693 # occ.  1.00000000
 
ion      s     py     pz     px    dxy    dyz    dz2    dxz  x2-y2    tot
    1  0.000  0.000  0.000  0.000  0.000  0.371  0.000  0.124  0.000  0.494
    2  0.000  0.000  0.000  0.000  0.000  0.371  0.000  0.124  0.000  0.494
tot    0.000  0.000  0.000  0.000  0.000  0.742  0.000  0.247  0.000  0.989
 
band    12 # energy   13.21355224 # occ.  0.00000000
 
ion      s     py     pz     px    dxy    dyz    dz2    dxz  x2-y2    tot
    1  0.000  0.000  0.241  0.000  0.000  0.042  0.000  0.127  0.000  0.411
    2  0.000  0.000  0.241  0.000  0.000  0.042  0.000  0.127  0.000  0.411
tot    0.000  0.000  0.483  0.000  0.000  0.085  0.000  0.254  0.000  0.822
 
band    13 # energy   17.29422070 # occ.  0.00000000
 
ion      s     py     pz     px    dxy    dyz    dz2    dxz  x2-y2    tot
    1  0.207  0.008  0.000  0.024  0.001  0.000  0.208  0.000  0.000  0.448
    2  0.207  0.008  0.000  0.024  0.001  0.000  0.208  0.000  0.000  0.448
tot    0.414  0.016  0.000  0.048  0.001  0.000  0.416  0.000  0.000  0.896
 
band    14 # energy   27.04135434 # occ.  0.00000000
 
ion      s     py     pz     px    dxy    dyz    dz2    dxz  x2-y2    tot
    1  0.043  0.037  0.000  0.111  0.121  0.000  0.023  0.000  0.040  0.376
    2  0.043  0.037  0.000  0.111  0.121  0.000  0.023  0.000  0.040  0.376
tot    0.085  0.074  0.000  0.222  0.243  0.000  0.046  0.000  0.081  0.751
 
band    15 # energy   30.81747641 # occ.  0.00000000
 
ion      s     py     pz     px    dxy    dyz    dz2    dxz  x2-y2    tot
    1  0.000  0.192  0.000  0.064  0.033  0.000  0.000  0.000  0.100  0.389
    2  0.000  0.192  0.000  0.064  0.033  0.000  0.000  0.000  0.100  0.389
tot    0.000  0.383  0.000  0.128  0.067  0.000  0.000  0.000  0.200  0.777
 
band    16 # energy   32.26662324 # occ.  0.00000000
 
ion      s     py     pz     px    dxy    dyz    dz2    dxz  x2-y2    tot
    1  0.023  0.006  0.000  0.017  0.146  0.000  0.049  0.000  0.049  0.289
    2  0.023  0.006  0.000  0.017  0.146  0.000  0.049  0.000  0.049  0.289
tot    0.045  0.011  0.000  0.034  0.291  0.000  0.098  0.000  0.097  0.577
 
band    17 # energy   34.18698103 # occ.  0.00000000
 
ion      s     py     pz     px    dxy    dyz    dz2    dxz  x2-y2    tot
    1  0.000  0.000  0.040  0.000  0.000  0.055  0.000  0.165  0.000  0.260
    2  0.000  0.000  0.040  0.000  0.000  0.055  0.000  0.165  0.000  0.260
tot    0.000  0.000  0.079  0.000  0.000  0.110  0.000  0.330  0.000  0.520
 
band    18 # energy   36.40208065 # occ.  0.00000000
 
ion      s     py     pz     px    dxy    dyz    dz2    dxz  x2-y2    tot
    1  0.000  0.000  0.009  0.000  0.000  0.014  0.000  0.041  0.000  0.063
    2  0.000  0.000  0.009  0.000  0.000  0.014  0.000  0.041  0.000  0.063
tot    0.000  0.000  0.018  0.000  0.000  0.027  0.000  0.081  0.000  0.126
 
band    19 # energy   37.28414926 # occ.  0.00000000
 
ion      s     py     pz     px    dxy    dyz    dz2    dxz  x2-y2    tot
    1  0.029  0.036  0.000  0.109  0.052  0.000  0.029  0.000  0.017  0.272
    2  0.029  0.036  0.000  0.109  0.052  0.000  0.029  0.000  0.017  0.272
tot    0.058  0.072  0.000  0.217  0.103  0.000  0.059  0.000  0.034  0.544
 
band    20 # energy   39.51190159 # occ.  0.00000000
 
ion      s     py     pz     px    dxy    dyz    dz2    dxz  x2-y2    tot
    1  0.045  0.042  0.000  0.126  0.000  0.000  0.126  0.000  0.000  0.339
    2  0.045  0.042  0.000  0.126  0.000  0.000  0.126  0.000  0.000  0.339
tot    0.089  0.084  0.000  0.252  0.000  0.000  0.252  0.000  0.000  0.677
 
band    21 # energy   39.98525212 # occ.  0.00000000
 
ion      s     py     pz     px    dxy    dyz    dz2    dxz  x2-y2    tot
    1  0.000  0.000  0.000  0.000  0.000  0.286  0.000  0.095  0.000  0.381
    2  0.000  0.000  0.000  0.000  0.000  0.286  0.000  0.095  0.000  0.381
tot    0.000  0.000  0.000  0.000  0.000  0.572  0.000  0.191  0.000  0.763
 
band    22 # energy   40.74820132 # occ.  0.00000000
 
ion      s     py     pz     px    dxy    dyz    dz2    dxz  x2-y2    tot
    1  0.000  0.000  0.235  0.000  0.000  0.009  0.000  0.027  0.000  0.271
    2  0.000  0.000  0.235  0.000  0.000  0.009  0.000  0.027  0.000  0.271
tot    0.000  0.000  0.471  0.000  0.000  0.018  0.000  0.053  0.000  0.541
 
band    23 # energy   41.25574537 # occ.  0.00000000
 
ion      s     py     pz     px    dxy    dyz    dz2    dxz  x2-y2    tot
    1  0.000  0.047  0.000  0.016  0.113  0.000  0.000  0.000  0.340  0.515
    2  0.000  0.047  0.000  0.016  0.113  0.000  0.000  0.000  0.340  0.515
tot    0.000  0.094  0.000  0.031  0.226  0.000  0.000  0.000  0.679  1.031
 
band    24 # energy   42.88428546 # occ.  0.00000000
 
ion      s     py     pz     px    dxy    dyz    dz2    dxz  x2-y2    tot
    1  0.000  0.237  0.000  0.079  0.024  0.000  0.000  0.000  0.071  0.410
    2  0.000  0.237  0.000  0.079  0.024  0.000  0.000  0.000  0.071  0.410
tot    0.000  0.473  0.000  0.158  0.047  0.000  0.000  0.000  0.142  0.820
 

 k-point     4 :    0.25000000-0.00000000 0.00000000     weight = 0.00520833

band     1 # energy    3.55044132 # occ.  1.00000000
 
ion      s     py     pz     px    dxy    dyz    dz2    dxz  x2-y2    tot
    1  0.290  0.015  0.000  0.046  0.014  0.000  0.005  0.000  0.005  0.377
    2  0.290  0.015  0.000  0.046  0.014  0.000  0.005  0.000  0.005  0.377
tot    0.581  0.031  0.000  0.093  0.029  0.000  0.011  0.000  0.010  0.754
 
band     2 # energy    6.10883376 # occ.  1.00000000
 
ion      s     py     pz     px    dxy    dyz    dz2    dxz  x2-y2    tot
    1  0.026  0.004  0.000  0.012  0.105  0.000  0.278  0.000  0.035  0.461
    2  0.026  0.004  0.000  0.012  0.105  0.000  0.278  0.000  0.035  0.461
tot    0.052  0.008  0.000  0.024  0.211  0.000  0.557  0.000  0.070  0.922
 
band     3 # energy    6.97429294 # occ.  1.00000000
 
ion      s     py     pz     px    dxy    dyz    dz2    dxz  x2-y2    tot
    1  0.000  0.000  0.053  0.000  0.000  0.099  0.000  0.297  0.000  0.448
    2  0.000  0.000  0.053  0.000  0.000  0.099  0.000  0.297  0.000  0.448
tot    0.000  0.000  0.106  0.000  0.000  0.198  0.000  0.594  0.000  0.897
 
band     4 # energy    7.22080045 # occ.  1.00000000
 
ion      s     py     pz     px    dxy    dyz    dz2    dxz  x2-y2    tot
    1  0.001  0.007  0.000  0.021  0.230  0.000  0.129  0.000  0.077  0.464
    2  0.001  0.007  0.000  0.021  0.230  0.000  0.129  0.000  0.077  0.464
tot    0.002  0.014  0.000  0.041  0.460  0.000  0.259  0.000  0.153  0.929
 
band     5 # energy    7.92260670 # occ.  1.00000000
 
ion      s     py     pz     px    dxy    dyz    dz2    dxz  x2-y2    tot
    1  0.011  0.001  0.000  0.004  0.251  0.000  0.129  0.000  0.084  0.480
    2  0.011  0.001  0.000  0.004  0.251  0.000  0.129  0.000  0.084  0.480
tot    0.021  0.003  0.000  0.009  0.502  0.000  0.258  0.000  0.167  0.959
 
band     6 # energy    8.12136550 # occ.  1.00000000
 
ion      s     py     pz     px    dxy    dyz    dz2    dxz  x2-y2    tot
    1  0.000  0.000  0.000  0.000  0.000  0.364  0.000  0.121  0.000  0.486
    2  0.000  0.000  0.000  0.000  0.000  0.364  0.000  0.121  0.000  0.486
tot    0.000  0.000  0.000  0.000  0.000  0.728  0.000  0.243  0.000  0.971
 
band     7 # energy    8.35655392 # occ.  1.00000000
 
ion      s     py     pz     px    dxy    dyz    dz2    dxz  x2-y2    tot
    1  0.000  0.000  0.029  0.000  0.000  0.112  0.000  0.336  0.000  0.477
    2  0.000  0.000  0.029  0.000  0.000  0.112  0.000  0.336  0.000  0.477
tot    0.000  0.000  0.058  0.000  0.000  0.224  0.000  0.672  0.000  0.953
 
band     8 # energy    8.82887886 # occ.  1.00000000
 
ion      s     py     pz     px    dxy    dyz    dz2    dxz  x2-y2    tot
    1  0.000  0.002  0.000  0.001  0.121  0.000  0.000  0.000  0.363  0.486
    2  0.000  0.002  0.000  0.001  0.121  0.000  0.000  0.000  0.363  0.486
tot    0.000  0.004  0.000  0.001  0.242  0.000  0.000  0.000  0.726  0.972
 
band     9 # energy    8.85475532 # occ.  1.00000000
 
ion      s     py     pz     px    dxy    dyz    dz2    dxz  x2-y2    tot
    1  0.006  0.002  0.000  0.005  0.101  0.000  0.339  0.000  0.034  0.486
    2  0.006  0.002  0.000  0.005  0.101  0.000  0.339  0.000  0.034  0.486
tot    0.011  0.003  0.000  0.010  0.202  0.000  0.677  0.000  0.067  0.972
 
band    10 # energy    9.03759846 # occ.  1.00000000
 
ion      s     py     pz     px    dxy    dyz    dz2    dxz  x2-y2    tot
    1  0.000  0.002  0.000  0.001  0.122  0.000  0.000  0.000  0.365  0.490
    2  0.000  0.002  0.000  0.001  0.122  0.000  0.000  0.000  0.365  0.490
tot    0.000  0.005  0.000  0.002  0.244  0.000  0.000  0.000  0.731  0.980
 
band    11 # energy    9.89585661 # occ.  1.00000000
 
ion      s     py     pz     px    dxy    dyz    dz2    dxz  x2-y2    tot