PROCAR lm decomposed
# of k-points:   95         # of bands:   28         # of ions:    2

 k-point     1 :    0.00000000 0.00000000 0.00000000     weight = 0.00086806

band     1 # energy    1.90564194 # occ.  1.00000000
 
ion      s     py     pz     px    dxy    dyz    dz2    dxz  x2-y2    tot
    1  0.390  0.000  0.000  0.000  0.000  0.000  0.000  0.000  0.000  0.390
    2  0.390  0.000  0.000  0.000  0.000  0.000  0.000  0.000  0.000  0.390
tot    0.780  0.000  0.000  0.000  0.000  0.000  0.000  0.000  0.000  0.780
 
band     2 # energy    5.75557354 # occ.  1.00000000
 
ion      s     py     pz     px    dxy    dyz    dz2    dxz  x2-y2    tot
    1  0.085  0.000  0.000  0.000  0.000  0.000  0.373  0.000  0.000  0.459
    2  0.085  0.000  0.000  0.000  0.000  0.000  0.373  0.000  0.000  0.459
tot    0.171  0.000  0.000  0.000  0.000  0.000  0.747  0.000  0.000  0.917
 
band     3 # energy    8.50176065 # occ.  1.00000000
 
ion      s     py     pz     px    dxy    dyz    dz2    dxz  x2-y2    tot
    1  0.000  0.000  0.000  0.000  0.000  0.000  0.489  0.000  0.000  0.489
    2  0.000  0.000  0.000  0.000  0.000  0.000  0.489  0.000  0.000  0.489
tot    0.000  0.000  0.000  0.000  0.000  0.000  0.978  0.000  0.000  0.978
 
band     4 # energy    8.51463622 # occ.  1.00000000
 
ion      s     py     pz     px    dxy    dyz    dz2    dxz  x2-y2    tot
    1  0.000  0.001  0.000  0.000  0.000  0.000  0.000  0.000  0.485  0.485
    2  0.000  0.001  0.000  0.000  0.000  0.000  0.000  0.000  0.485  0.485
tot    0.000  0.001  0.000  0.000  0.000  0.000  0.000  0.000  0.969  0.971
 
band     5 # energy    8.51463672 # occ.  1.00000000
 
ion      s     py     pz     px    dxy    dyz    dz2    dxz  x2-y2    tot
    1  0.000  0.000  0.000  0.001  0.485  0.000  0.000  0.000  0.000  0.485
    2  0.000  0.000  0.000  0.001  0.485  0.000  0.000  0.000  0.000  0.485
tot    0.000  0.000  0.000  0.001  0.969  0.000  0.000  0.000  0.000  0.971
 
band     6 # energy    8.86547583 # occ.  1.00000000
 
ion      s     py     pz     px    dxy    dyz    dz2    dxz  x2-y2    tot
    1  0.000  0.001  0.000  0.000  0.000  0.000  0.000  0.000  0.489  0.489
    2  0.000  0.001  0.000  0.000  0.000  0.000  0.000  0.000  0.489  0.489
tot    0.000  0.002  0.000  0.000  0.000  0.000  0.000  0.000  0.977  0.979
 
band     7 # energy    8.86547637 # occ.  1.00000000
 
ion      s     py     pz     px    dxy    dyz    dz2    dxz  x2-y2    tot
    1  0.000  0.000  0.000  0.001  0.489  0.000  0.000  0.000  0.000  0.489
    2  0.000  0.000  0.000  0.001  0.489  0.000  0.000  0.000  0.000  0.489
tot    0.000  0.000  0.000  0.002  0.977  0.000  0.000  0.000  0.000  0.979
 
band     8 # energy    9.24156555 # occ.  1.00000000
 
ion      s     py     pz     px    dxy    dyz    dz2    dxz  x2-y2    tot
    1  0.000  0.000  0.000  0.000  0.000  0.000  0.000  0.491  0.000  0.491
    2  0.000  0.000  0.000  0.000  0.000  0.000  0.000  0.491  0.000  0.491
tot    0.000  0.000  0.000  0.000  0.000  0.000  0.000  0.983  0.000  0.983
 
band     9 # energy    9.24156567 # occ.  1.00000000
 
ion      s     py     pz     px    dxy    dyz    dz2    dxz  x2-y2    tot
    1  0.000  0.000  0.000  0.000  0.000  0.491  0.000  0.000  0.000  0.491
    2  0.000  0.000  0.000  0.000  0.000  0.491  0.000  0.000  0.000  0.491
tot    0.000  0.000  0.000  0.000  0.000  0.983  0.000  0.000  0.000  0.983
 
band    10 # energy   10.46547446 # occ.  1.00000000
 
ion      s     py     pz     px    dxy    dyz    dz2    dxz  x2-y2    tot
    1  0.000  0.000  0.000  0.000  0.000  0.000  0.000  0.493  0.000  0.493
    2  0.000  0.000  0.000  0.000  0.000  0.000  0.000  0.493  0.000  0.493
tot    0.000  0.000  0.000  0.000  0.000  0.000  0.000  0.985  0.000  0.985
 
band    11 # energy   10.46547471 # occ.  1.00000000
 
ion      s     py     pz     px    dxy    dyz    dz2    dxz  x2-y2    tot
    1  0.000  0.000  0.000  0.000  0.000  0.493  0.000  0.000  0.000  0.493
    2  0.000  0.000  0.000  0.000  0.000  0.493  0.000  0.000  0.000  0.493
tot    0.000  0.000  0.000  0.000  0.000  0.985  0.000  0.000  0.000  0.985
 
band    12 # energy   11.11901704 # occ.  0.97385747
 
ion      s     py     pz     px    dxy    dyz    dz2    dxz  x2-y2    tot
    1  0.000  0.000  0.374  0.000  0.000  0.000  0.000  0.000  0.000  0.374
    2  0.000  0.000  0.374  0.000  0.000  0.000  0.000  0.000  0.000  0.374
tot    0.000  0.000  0.748  0.000  0.000  0.000  0.000  0.000  0.000  0.748
 
band    13 # energy   18.17690306 # occ.  0.00000000
 
ion      s     py     pz     px    dxy    dyz    dz2    dxz  x2-y2    tot
    1  0.228  0.000  0.000  0.000  0.000  0.000  0.242  0.000  0.000  0.470
    2  0.228  0.000  0.000  0.000  0.000  0.000  0.242  0.000  0.000  0.470
tot    0.457  0.000  0.000  0.000  0.000  0.000  0.484  0.000  0.000  0.940
 
band    14 # energy   33.68001906 # occ.  0.00000000
 
ion      s     py     pz     px    dxy    dyz    dz2    dxz  x2-y2    tot
    1  0.007  0.000  0.000  0.000  0.000  0.000  0.033  0.000  0.000  0.040
    2  0.007  0.000  0.000  0.000  0.000  0.000  0.033  0.000  0.000  0.040
tot    0.014  0.000  0.000  0.000  0.000  0.000  0.066  0.000  0.000  0.080
 
band    15 # energy   36.88207270 # occ.  0.00000000
 
ion      s     py     pz     px    dxy    dyz    dz2    dxz  x2-y2    tot
    1  0.000  0.268  0.000  0.000  0.000  0.000  0.000  0.000  0.138  0.406
    2  0.000  0.268  0.000  0.000  0.000  0.000  0.000  0.000  0.138  0.406
tot    0.000  0.536  0.000  0.000  0.000  0.000  0.000  0.000  0.275  0.811
 
band    16 # energy   36.88207647 # occ.  0.00000000
 
ion      s     py     pz     px    dxy    dyz    dz2    dxz  x2-y2    tot
    1  0.000  0.000  0.000  0.268  0.138  0.000  0.000  0.000  0.000  0.406
    2  0.000  0.000  0.000  0.268  0.138  0.000  0.000  0.000  0.000  0.406
tot    0.000  0.000  0.000  0.536  0.275  0.000  0.000  0.000  0.000  0.811
 
band    17 # energy   37.00112412 # occ.  0.00000000
 
ion      s     py     pz     px    dxy    dyz    dz2    dxz  x2-y2    tot
    1  0.022  0.000  0.000  0.000  0.000  0.000  0.076  0.000  0.000  0.099
    2  0.022  0.000  0.000  0.000  0.000  0.000  0.076  0.000  0.000  0.099
tot    0.045  0.000  0.000  0.000  0.000  0.000  0.152  0.000  0.000  0.197
 
band    18 # energy   37.40601674 # occ.  0.00000000
 
ion      s     py     pz     px    dxy    dyz    dz2    dxz  x2-y2    tot
    1  0.000  0.000  0.024  0.000  0.000  0.000  0.000  0.000  0.000  0.024
    2  0.000  0.000  0.024  0.000  0.000  0.000  0.000  0.000  0.000  0.024
tot    0.000  0.000  0.049  0.000  0.000  0.000  0.000  0.000  0.000  0.049
 
band    19 # energy   38.16889951 # occ.  0.00000000
 
ion      s     py     pz     px    dxy    dyz    dz2    dxz  x2-y2    tot
    1  0.000  0.084  0.000  0.000  0.000  0.000  0.000  0.000  0.421  0.505
    2  0.000  0.084  0.000  0.000  0.000  0.000  0.000  0.000  0.421  0.505
tot    0.000  0.168  0.000  0.000  0.000  0.000  0.000  0.000  0.841  1.010
 
band    20 # energy   38.16890235 # occ.  0.00000000
 
ion      s     py     pz     px    dxy    dyz    dz2    dxz  x2-y2    tot
    1  0.000  0.000  0.000  0.084  0.421  0.000  0.000  0.000  0.000  0.505
    2  0.000  0.000  0.000  0.084  0.421  0.000  0.000  0.000  0.000  0.505
tot    0.000  0.000  0.000  0.168  0.841  0.000  0.000  0.000  0.000  1.010
 
band    21 # energy   42.61116564 # occ.  0.00000000
 
ion      s     py     pz     px    dxy    dyz    dz2    dxz  x2-y2    tot
    1  0.000  0.000  0.000  0.000  0.000  0.144  0.000  0.000  0.000  0.144
    2  0.000  0.000  0.000  0.000  0.000  0.144  0.000  0.000  0.000  0.144
tot    0.000  0.000  0.000  0.000  0.000  0.289  0.000  0.000  0.000  0.289
 
band    22 # energy   42.61116615 # occ.  0.00000000
 
ion      s     py     pz     px    dxy    dyz    dz2    dxz  x2-y2    tot
    1  0.000  0.000  0.000  0.000  0.000  0.000  0.000  0.144  0.000  0.144
    2  0.000  0.000  0.000  0.000  0.000  0.000  0.000  0.144  0.000  0.144
tot    0.000  0.000  0.000  0.000  0.000  0.000  0.000  0.289  0.000  0.289
 
band    23 # energy   43.88894074 # occ.  0.00000000
 
ion      s     py     pz     px    dxy    dyz    dz2    dxz  x2-y2    tot
    1  0.006  0.000  0.000  0.000  0.000  0.000  0.673  0.000  0.000  0.679
    2  0.006  0.000  0.000  0.000  0.000  0.000  0.673  0.000  0.000  0.679
tot    0.012  0.000  0.000  0.000  0.000  0.000  1.347  0.000  0.000  1.359
 
band    24 # energy   44.08945653 # occ.  0.00000000
 
ion      s     py     pz     px    dxy    dyz    dz2    dxz  x2-y2    tot
    1  0.000  0.000  0.049  0.000  0.000  0.000  0.000  0.000  0.000  0.049
    2  0.000  0.000  0.049  0.000  0.000  0.000  0.000  0.000  0.000  0.049
tot    0.000  0.000  0.099  0.000  0.000  0.000  0.000  0.000  0.000  0.099
 
band    25 # energy   46.16693295 # occ.  0.00000000
 
ion      s     py     pz     px    dxy    dyz    dz2    dxz  x2-y2    tot
    1  0.000  0.000  0.000  0.000  0.000  0.554  0.000  0.000  0.000  0.554
    2  0.000  0.000  0.000  0.000  0.000  0.554  0.000  0.000  0.000  0.554
tot    0.000  0.000  0.000  0.000  0.000  1.107  0.000  0.000  0.000  1.107
 
band    26 # energy   46.16693391 # occ.  0.00000000
 
ion      s     py     pz     px    dxy    dyz    dz2    dxz  x2-y2    tot
    1  0.000  0.000  0.000  0.000  0.000  0.000  0.000  0.554  0.000  0.554
    2  0.000  0.000  0.000  0.000  0.000  0.000  0.000  0.554  0.000  0.554
tot    0.000  0.000  0.000  0.000  0.000  0.000  0.000  1.107  0.000  1.107
 
band    27 # energy   47.36060437 # occ.  0.00000000
 
ion      s     py     pz     px    dxy    dyz    dz2    dxz  x2-y2    tot
    1  2.870  0.000  0.000  0.000  0.000  0.000  0.023  0.000  0.000  2.893
    2  2.870  0.000  0.000  0.000  0.000  0.000  0.023  0.000  0.000  2.893
tot    5.739  0.000  0.000  0.000  0.000  0.000  0.046  0.000  0.000  5.786
 
band    28 # energy   47.40826340 # occ.  0.00000000
 
ion      s     py     pz     px    dxy    dyz    dz2    dxz  x2-y2    tot
    1  0.000  0.000  0.363  0.000  0.000  0.000  0.000  0.000  0.000  0.363
    2  0.000  0.000  0.363  0.000  0.000  0.000  0.000  0.000  0.000  0.363
tot    0.000  0.000  0.727  0.000  0.000  0.000  0.000  0.000  0.000  0.727
 

 k-point     2 :    0.08333333-0.00000000 0.00000000     weight = 0.00520833

band     1 # energy    2.16062465 # occ.  1.00000000
 
ion      s     py     pz     px    dxy    dyz    dz2    dxz  x2-y2    tot
    1  0.381  0.002  0.000  0.007  0.000  0.000  0.000  0.000  0.000  0.390
    2  0.381  0.002  0.000  0.007  0.000  0.000  0.000  0.000  0.000  0.390
tot    0.762  0.005  0.000  0.014  0.000  0.000  0.000  0.000  0.000  0.781
 
band     2 # energy    5.90990418 # occ.  1.00000000
 
ion      s     py     pz     px    dxy    dyz    dz2    dxz  x2-y2    tot
    1  0.077  0.001  0.000  0.004  0.002  0.000  0.374  0.000  0.001  0.459
    2  0.077  0.001  0.000  0.004  0.002  0.000  0.374  0.000  0.001  0.459
tot    0.155  0.003  0.000  0.008  0.004  0.000  0.747  0.000  0.001  0.919
 
band     3 # energy    8.25551715 # occ.  1.00000000
 
ion      s     py     pz     px    dxy    dyz    dz2    dxz  x2-y2    tot
    1  0.000  0.000  0.000  0.001  0.238  0.000  0.165  0.000  0.079  0.484
    2  0.000  0.000  0.000  0.001  0.238  0.000  0.165  0.000  0.079  0.484
tot    0.000  0.001  0.000  0.002  0.476  0.000  0.330  0.000  0.159  0.967
 
band     4 # energy    8.63900378 # occ.  1.00000000
 
ion      s     py     pz     px    dxy    dyz    dz2    dxz  x2-y2    tot
    1  0.000  0.001  0.000  0.000  0.121  0.000  0.000  0.000  0.363  0.485
    2  0.000  0.001  0.000  0.000  0.121  0.000  0.000  0.000  0.363  0.485
tot    0.000  0.002  0.000  0.001  0.242  0.000  0.000  0.000  0.726  0.970
 
band     5 # energy    8.71795569 # occ.  1.00000000
 
ion      s     py     pz     px    dxy    dyz    dz2    dxz  x2-y2    tot
    1  0.000  0.000  0.000  0.000  0.150  0.000  0.287  0.000  0.050  0.488
    2  0.000  0.000  0.000  0.000  0.150  0.000  0.287  0.000  0.050  0.488
tot    0.000  0.000  0.000  0.001  0.301  0.000  0.574  0.000  0.100  0.976
 
band     6 # energy    8.81467752 # occ.  1.00000000
 
ion      s     py     pz     px    dxy    dyz    dz2    dxz  x2-y2    tot
    1  0.001  0.000  0.000  0.001  0.336  0.000  0.038  0.000  0.112  0.488
    2  0.001  0.000  0.000  0.001  0.336  0.000  0.038  0.000  0.112  0.488
tot    0.002  0.000  0.000  0.001  0.672  0.000  0.076  0.000  0.224  0.976
 
band     7 # energy    8.97532726 # occ.  1.00000000
 
ion      s     py     pz     px    dxy    dyz    dz2    dxz  x2-y2    tot
    1  0.000  0.001  0.000  0.000  0.122  0.000  0.000  0.000  0.366  0.489
    2  0.000  0.001  0.000  0.000  0.122  0.000  0.000  0.000  0.366  0.489
tot    0.000  0.002  0.000  0.001  0.244  0.000  0.000  0.000  0.732  0.979
 
band     8 # energy    9.07194311 # occ.  1.00000000
 
ion      s     py     pz     px    dxy    dyz    dz2    dxz  x2-y2    tot
    1  0.000  0.000  0.015  0.000  0.000  0.117  0.000  0.351  0.000  0.483
    2  0.000  0.000  0.015  0.000  0.000  0.117  0.000  0.351  0.000  0.483
tot    0.000  0.000  0.030  0.000  0.000  0.234  0.000  0.702  0.000  0.967
 
band     9 # energy    9.16275191 # occ.  1.00000000
 
ion      s     py     pz     px    dxy    dyz    dz2    dxz  x2-y2    tot
    1  0.000  0.000  0.000  0.000  0.000  0.368  0.000  0.123  0.000  0.490
    2  0.000  0.000  0.000  0.000  0.000  0.368  0.000  0.123  0.000  0.490
tot    0.000  0.000  0.000  0.000  0.000  0.736  0.000  0.245  0.000  0.981
 
band    10 # energy    9.59676793 # occ.  1.00000000
 
ion      s     py     pz     px    dxy    dyz    dz2    dxz  x2-y2    tot
    1  0.000  0.000  0.103  0.000  0.000  0.088  0.000  0.265  0.000  0.456
    2  0.000  0.000  0.103  0.000  0.000  0.088  0.000  0.265  0.000  0.456
tot    0.000  0.000  0.205  0.000  0.000  0.177  0.000  0.530  0.000  0.912
 
band    11 # energy   10.49960983 # occ.  1.00000000
 
ion      s     py     pz     px    dxy    dyz    dz2    dxz  x2-y2    tot
    1  0.000  0.000  0.000  0.000  0.000  0.370  0.000  0.123  0.000  0.493
    2  0.000  0.000  0.000  0.000  0.000  0.370  0.000  0.123  0.000  0.493
tot    0.000  0.000  0.000  0.000  0.000  0.740  0.000  0.247  0.000  0.987
 
band    12 # energy   12.32385465 # occ.  0.00000000
 
ion      s     py     pz     px    dxy    dyz    dz2    dxz  x2-y2    tot
    1  0.000  0.000  0.252  0.000  0.000  0.042  0.000  0.125  0.000  0.419
    2  0.000  0.000  0.252  0.000  0.000  0.042  0.000  0.125  0.000  0.419
tot    0.000  0.000  0.505  0.000  0.000  0.083  0.000  0.250  0.000  0.838
 
band    13 # energy   18.21491697 # occ.  0.00000000
 
ion      s     py     pz     px    dxy    dyz    dz2    dxz  x2-y2    tot
    1  0.224  0.002  0.000  0.006  0.000  0.000  0.236  0.000  0.000  0.468
    2  0.224  0.002  0.000  0.006  0.000  0.000  0.236  0.000  0.000  0.468
tot    0.448  0.004  0.000  0.012  0.000  0.000  0.472  0.000  0.000  0.936
 
band    14 # energy   32.02801417 # occ.  0.00000000
 
ion      s     py     pz     px    dxy    dyz    dz2    dxz  x2-y2    tot
    1  0.013  0.020  0.000  0.060  0.116  0.000  0.026  0.000  0.039  0.275
    2  0.013  0.020  0.000  0.060  0.116  0.000  0.026  0.000  0.039  0.275
tot    0.026  0.040  0.000  0.121  0.233  0.000  0.052  0.000  0.078  0.549
 
band    15 # energy   34.45237315 # occ.  0.00000000
 
ion      s     py     pz     px    dxy    dyz    dz2    dxz  x2-y2    tot
    1  0.023  0.024  0.000  0.071  0.072  0.000  0.042  0.000  0.024  0.255
    2  0.023  0.024  0.000  0.071  0.072  0.000  0.042  0.000  0.024  0.255
tot    0.046  0.047  0.000  0.142  0.143  0.000  0.085  0.000  0.048  0.509
 
band    16 # energy   34.63617065 # occ.  0.00000000
 
ion      s     py     pz     px    dxy    dyz    dz2    dxz  x2-y2    tot
    1  0.000  0.174  0.000  0.058  0.047  0.000  0.000  0.000  0.142  0.421
    2  0.000  0.174  0.000  0.058  0.047  0.000  0.000  0.000  0.142  0.421
tot    0.000  0.349  0.000  0.116  0.094  0.000  0.000  0.000  0.283  0.843
 
band    17 # energy   37.42338025 # occ.  0.00000000
 
ion      s     py     pz     px    dxy    dyz    dz2    dxz  x2-y2    tot
    1  0.000  0.000  0.009  0.000  0.000  0.013  0.000  0.038  0.000  0.059
    2  0.000  0.000  0.009  0.000  0.000  0.013  0.000  0.038  0.000  0.059
tot    0.000  0.000  0.019  0.000  0.000  0.025  0.000  0.075  0.000  0.119
 
band    18 # energy   37.99020034 # occ.  0.00000000
 
ion      s     py     pz     px    dxy    dyz    dz2    dxz  x2-y2    tot
    1  0.003  0.017  0.000  0.052  0.042  0.000  0.034  0.000  0.014  0.162
    2  0.003  0.017  0.000  0.052  0.042  0.000  0.034  0.000  0.014  0.162
tot    0.006  0.034  0.000  0.103  0.084  0.000  0.068  0.000  0.028  0.323
 
band    19 # energy   39.38912252 # occ.  0.00000000
 
ion      s     py     pz     px    dxy    dyz    dz2    dxz  x2-y2    tot
    1  0.000  0.000  0.029  0.000  0.000  0.030  0.000  0.089  0.000  0.148
    2  0.000  0.000  0.029  0.000  0.000  0.030  0.000  0.089  0.000  0.148
tot    0.000  0.000  0.058  0.000  0.000  0.060  0.000  0.179  0.000  0.296
 
band    20 # energy   40.62604313 # occ.  0.00000000
 
ion      s     py     pz     px    dxy    dyz    dz2    dxz  x2-y2    tot
    1  0.000  0.078  0.000  0.026  0.097  0.000  0.000  0.000  0.291  0.493
    2  0.000  0.078  0.000  0.026  0.097  0.000  0.000  0.000  0.291  0.493
tot    0.000  0.156  0.000  0.052  0.194  0.000  0.000  0.000  0.583  0.985
 
band    21 # energy   41.39504147 # occ.  0.00000000
 
ion      s     py     pz     px    dxy    dyz    dz2    dxz  x2-y2    tot
    1  0.007  0.035  0.000  0.105  0.159  0.000  0.005  0.000  0.053  0.364
    2  0.007  0.035  0.000  0.105  0.159  0.000  0.005  0.000  0.053  0.364
tot    0.015  0.070  0.000  0.209  0.318  0.000  0.010  0.000  0.106  0.728
 
band    22 # energy   42.14616485 # occ.  0.00000000
 
ion      s     py     pz     px    dxy    dyz    dz2    dxz  x2-y2    tot
    1  0.000  0.000  0.000  0.000  0.000  0.194  0.000  0.065  0.000  0.259
    2  0.000  0.000  0.000  0.000  0.000  0.194  0.000  0.065  0.000  0.259
tot    0.000  0.000  0.000  0.000  0.000  0.389  0.000  0.130  0.000  0.518
 
band    23 # energy   43.46318496 # occ.  0.00000000
 
ion      s     py     pz     px    dxy    dyz    dz2    dxz  x2-y2    tot
    1  0.002  0.008  0.000  0.023  0.045  0.000  0.547  0.000  0.015  0.640
    2  0.002  0.008  0.000  0.023  0.045  0.000  0.547  0.000  0.015  0.640
tot    0.004  0.015  0.000  0.046  0.090  0.000  1.094  0.000  0.030  1.280
 
band    24 # energy   43.74311013 # occ.  0.00000000
 
ion      s     py     pz     px    dxy    dyz    dz2    dxz  x2-y2    tot
    1  0.000  0.000  0.184  0.000  0.000  0.051  0.000  0.152  0.000  0.386
    2  0.000  0.000  0.184  0.000  0.000  0.051  0.000  0.152  0.000  0.386
tot    0.000  0.000  0.367  0.000  0.000  0.101  0.000  0.303  0.000  0.772
 
band    25 # energy   46.17662785 # occ.  0.00000000
 
ion      s     py     pz     px    dxy    dyz    dz2    dxz  x2-y2    tot
    1  0.576  0.025  0.000  0.075  0.206  0.000  0.097  0.000  0.069  1.047
    2  0.576  0.025  0.000  0.075  0.206  0.000  0.097  0.000  0.069  1.047
tot    1.151  0.050  0.000  0.151  0.412  0.000  0.194  0.000  0.137  2.095
 
band    26 # energy   46.36766193 # occ.  0.00000000
 
ion      s     py     pz     px    dxy    dyz    dz2    dxz  x2-y2    tot
    1  0.000  0.192  0.000  0.064  0.075  0.000  0.000  0.000  0.224  0.554
    2  0.000  0.192  0.000  0.064  0.075  0.000  0.000  0.000  0.224  0.554
tot    0.000  0.383  0.000  0.128  0.149  0.000  0.000  0.000  0.448  1.108
 
band    27 # energy   47.08534854 # occ.  0.00000000
 
ion      s     py     pz     px    dxy    dyz    dz2    dxz  x2-y2    tot
    1  0.000  0.000  0.000  0.000  0.000  0.328  0.000  0.109  0.000  0.438
    2  0.000  0.000  0.000  0.000  0.000  0.328  0.000  0.109  0.000  0.438
tot    0.000  0.000  0.000  0.000  0.000  0.657  0.000  0.219  0.000  0.876
 
band    28 # energy   47.52131998 # occ.  0.00000000
 
ion      s     py     pz     px    dxy    dyz    dz2    dxz  x2-y2    tot
    1  0.000  0.000  0.059  0.000  0.000  0.014  0.000  0.043  0.000  0.117
    2  0.000  0.000  0.059  0.000  0.000  0.014  0.000  0.043  0.000  0.117
tot    0.000  0.000  0.118  0.000  0.000  0.029  0.000  0.087  0.000  0.234
 

 k-point     3 :    0.16666667-0.00000000 0.00000000     weight = 0.00520833

band     1 # energy    2.89614788 # occ.  1.00000000
 
ion      s     py     pz     px    dxy    dyz    dz2    dxz  x2-y2    tot
    1  0.353  0.009  0.000  0.026  0.002  0.000  0.001  0.000  0.001  0.392
    2  0.353  0.009  0.000  0.026  0.002  0.000  0.001  0.000  0.001  0.392
tot    0.706  0.017  0.000  0.052  0.004  0.000  0.002  0.000  0.001  0.783
 
band     2 # energy    6.28978625 # occ.  1.00000000
 
ion      s     py     pz     px    dxy    dyz    dz2    dxz  x2-y2    tot
    1  0.055  0.004  0.000  0.013  0.020  0.000  0.363  0.000  0.007  0.462
    2  0.055  0.004  0.000  0.013  0.020  0.000  0.363  0.000  0.007  0.462
tot    0.110  0.009  0.000  0.027  0.040  0.000  0.725  0.000  0.013  0.924
 
band     3 # energy    7.95125967 # occ.  1.00000000
 
ion      s     py     pz     px    dxy    dyz    dz2    dxz  x2-y2    tot
    1  0.000  0.002  0.000  0.005  0.266  0.000  0.116  0.000  0.089  0.478
    2  0.000  0.002  0.000  0.005  0.266  0.000  0.116  0.000  0.089  0.478
tot    0.001  0.003  0.000  0.010  0.532  0.000  0.233  0.000  0.177  0.955
 
band     4 # energy    8.28858794 # occ.  1.00000000
 
ion      s     py     pz     px    dxy    dyz    dz2    dxz  x2-y2    tot
    1  0.000  0.000  0.070  0.000  0.000  0.097  0.000  0.290  0.000  0.456
    2  0.000  0.000  0.070  0.000  0.000  0.097  0.000  0.290  0.000  0.456
tot    0.000  0.000  0.140  0.000  0.000  0.193  0.000  0.579  0.000  0.913
 
band     5 # energy    8.62587455 # occ.  1.00000000
 
ion      s     py     pz     px    dxy    dyz    dz2    dxz  x2-y2    tot
    1  0.005  0.001  0.000  0.002  0.315  0.000  0.058  0.000  0.105  0.485
    2  0.005  0.001  0.000  0.002  0.315  0.000  0.058  0.000  0.105  0.485
tot    0.010  0.001  0.000  0.003  0.631  0.000  0.116  0.000  0.210  0.970
 
band     6 # energy    8.96870587 # occ.  1.00000000
 
ion      s     py     pz     px    dxy    dyz    dz2    dxz  x2-y2    tot
    1  0.000  0.000  0.000  0.000  0.000  0.367  0.000  0.122  0.000  0.489
    2  0.000  0.000  0.000  0.000  0.000  0.367  0.000  0.122  0.000  0.489
tot    0.000  0.000  0.000  0.000  0.000  0.733  0.000  0.244  0.000  0.977
 
band     7 # energy    8.99018257 # occ.  1.00000000
 
ion      s     py     pz     px    dxy    dyz    dz2    dxz  x2-y2    tot
    1  0.000  0.002  0.000  0.001  0.121  0.000  0.000  0.000  0.362  0.485
    2  0.000  0.002  0.000  0.001  0.121  0.000  0.000  0.000  0.362  0.485
tot    0.000  0.003  0.000  0.001  0.242  0.000  0.000  0.000  0.725  0.971
 
band     8 # energy    9.05255982 # occ.  1.00000000
 
ion      s     py     pz     px    dxy    dyz    dz2    dxz  x2-y2    tot
    1  0.002  0.000  0.000  0.001  0.114  0.000  0.333  0.000  0.038  0.488
    2  0.002  0.000  0.000  0.001  0.114  0.000  0.333  0.000  0.038  0.488
tot    0.003  0.001  0.000  0.003  0.228  0.000  0.665  0.000  0.076  0.976
 
band     9 # energy    9.19921355 # occ.  1.00000000
 
ion      s     py     pz     px    dxy    dyz    dz2    dxz  x2-y2    tot
    1  0.000  0.000  0.040  0.000  0.000  0.109  0.000  0.328  0.000  0.477
    2  0.000  0.000  0.040  0.000  0.000  0.109  0.000  0.328  0.000  0.477
tot    0.000  0.000  0.080  0.000  0.000  0.219  0.000  0.656  0.000  0.955
 
band    10 # energy    9.28309346 # occ.  1.00000000
 
ion      s     py     pz     px    dxy    dyz    dz2    dxz  x2-y2    tot
    1  0.000  0.002  0.000  0.001  0.122  0.000  0.000  0.000  0.366  0.490
    2  0.000  0.002  0.000  0.001  0.122  0.000  0.000  0.000  0.366  0.490
tot    0.000  0.004  0.000  0.001  0.244  0.000  0.000  0.000  0.731  0.980
 
band    11 # energy   10.57229374 # occ.  1.00000000
 
ion      s     py     pz     px    dxy    dyz    dz2    dxz  x2-y2    tot
    1  0.000  0.000  0.000  0.000  0.000  0.371  0.000  0.124  0.000  0.495
    2  0.000  0.000  0.000  0.000  0.000  0.371  0.000  0.124  0.000  0.495
tot    0.000  0.000  0.000  0.000  0.000  0.742  0.000  0.247  0.000  0.989
 
band    12 # energy   14.01555858 # occ.  0.00000000
 
ion      s     py     pz     px    dxy    dyz    dz2    dxz  x2-y2    tot
    1  0.000  0.000  0.249  0.000  0.000  0.044  0.000  0.133  0.000  0.426
    2  0.000  0.000  0.249  0.000  0.000  0.044  0.000  0.133  0.000  0.426
tot    0.000  0.000  0.498  0.000  0.000  0.088  0.000  0.265  0.000  0.852
 
band    13 # energy   18.34958254 # occ.  0.00000000
 
ion      s     py     pz     px    dxy    dyz    dz2    dxz  x2-y2    tot
    1  0.209  0.008  0.000  0.025  0.001  0.000  0.217  0.000  0.000  0.461
    2  0.209  0.008  0.000  0.025  0.001  0.000  0.217  0.000  0.000  0.461
tot    0.418  0.017  0.000  0.051  0.001  0.000  0.435  0.000  0.000  0.922
 
band    14 # energy   28.22971877 # occ.  0.00000000
 
ion      s     py     pz     px    dxy    dyz    dz2    dxz  x2-y2    tot
    1  0.042  0.037  0.000  0.110  0.132  0.000  0.024  0.000  0.044  0.388
    2  0.042  0.037  0.000  0.110  0.132  0.000  0.024  0.000  0.044  0.388
tot    0.085  0.073  0.000  0.219  0.264  0.000  0.048  0.000  0.088  0.777
 
band    15 # energy   32.13268564 # occ.  0.00000000
 
ion      s     py     pz     px    dxy    dyz    dz2    dxz  x2-y2    tot
    1  0.000  0.193  0.000  0.064  0.036  0.000  0.000  0.000  0.109  0.402
    2  0.000  0.193  0.000  0.064  0.036  0.000  0.000  0.000  0.109  0.402
tot    0.000  0.385  0.000  0.128  0.072  0.000  0.000  0.000  0.218  0.804
 
band    16 # energy   33.45969763 # occ.  0.00000000
 
ion      s     py     pz     px    dxy    dyz    dz2    dxz  x2-y2    tot
    1  0.023  0.006  0.000  0.018  0.153  0.000  0.051  0.000  0.051  0.301
    2  0.023  0.006  0.000  0.018  0.153  0.000  0.051  0.000  0.051  0.301
tot    0.045  0.012  0.000  0.037  0.305  0.000  0.102  0.000  0.102  0.603
 
band    17 # energy   35.39372621 # occ.  0.00000000
 
ion      s     py     pz     px    dxy    dyz    dz2    dxz  x2-y2    tot
    1  0.000  0.000  0.038  0.000  0.000  0.057  0.000  0.172  0.000  0.268
    2  0.000  0.000  0.038  0.000  0.000  0.057  0.000  0.172  0.000  0.268
tot    0.000  0.000  0.077  0.000  0.000  0.115  0.000  0.344  0.000  0.535
 
band    18 # energy   37.53679237 # occ.  0.00000000
 
ion      s     py     pz     px    dxy    dyz    dz2    dxz  x2-y2    tot
    1  0.000  0.000  0.009  0.000  0.000  0.014  0.000  0.043  0.000  0.065
    2  0.000  0.000  0.009  0.000  0.000  0.014  0.000  0.043  0.000  0.065
tot    0.000  0.000  0.017  0.000  0.000  0.028  0.000  0.085  0.000  0.131
 
band    19 # energy   38.68867082 # occ.  0.00000000
 
ion      s     py     pz     px    dxy    dyz    dz2    dxz  x2-y2    tot
    1  0.025  0.033  0.000  0.099  0.051  0.000  0.026  0.000  0.017  0.252
    2  0.025  0.033  0.000  0.099  0.051  0.000  0.026  0.000  0.017  0.252
tot    0.050  0.066  0.000  0.198  0.103  0.000  0.053  0.000  0.034  0.503
 
band    20 # energy   41.07724651 # occ.  0.00000000
 
ion      s     py     pz     px    dxy    dyz    dz2    dxz  x2-y2    tot
    1  0.057  0.044  0.000  0.132  0.001  0.000  0.152  0.000  0.000  0.385
    2  0.057  0.044  0.000  0.132  0.001  0.000  0.152  0.000  0.000  0.385
tot    0.113  0.088  0.000  0.264  0.001  0.000  0.303  0.000  0.000  0.770
 
band    21 # energy   41.37894659 # occ.  0.00000000
 
ion      s     py     pz     px    dxy    dyz    dz2    dxz  x2-y2    tot
    1  0.000  0.000  0.000  0.000  0.000  0.298  0.000  0.099  0.000  0.398
    2  0.000  0.000  0.000  0.000  0.000  0.298  0.000  0.099  0.000  0.398
tot    0.000  0.000  0.000  0.000  0.000  0.597  0.000  0.199  0.000  0.795
 
band    22 # energy   42.32946087 # occ.  0.00000000
 
ion      s     py     pz     px    dxy    dyz    dz2    dxz  x2-y2    tot
    1  0.000  0.000  0.231  0.000  0.000  0.011  0.000  0.033  0.000  0.275
    2  0.000  0.000  0.231  0.000  0.000  0.011  0.000  0.033  0.000  0.275
tot    0.000  0.000  0.461  0.000  0.000  0.022  0.000  0.067  0.000  0.550
 
band    23 # energy   42.80411507 # occ.  0.00000000
 
ion      s     py     pz     px    dxy    dyz    dz2    dxz  x2-y2    tot
    1  0.000  0.036  0.000  0.012  0.124  0.000  0.000  0.000  0.372  0.544
    2  0.000  0.036  0.000  0.012  0.124  0.000  0.000  0.000  0.372  0.544
tot    0.000  0.072  0.000  0.024  0.248  0.000  0.000  0.000  0.744  1.088
 
band    24 # energy   44.69640531 # occ.  0.00000000
 
ion      s     py     pz     px    dxy    dyz    dz2    dxz  x2-y2    tot
    1  0.000  0.247  0.000  0.082  0.021  0.000  0.000  0.000  0.064  0.415
    2  0.000  0.247  0.000  0.082  0.021  0.000  0.000  0.000  0.064  0.415
tot    0.000  0.494  0.000  0.165  0.043  0.000  0.000  0.000  0.128  0.830
 
band    25 # energy   44.78368248 # occ.  0.00000000
 
ion      s     py     pz     px    dxy    dyz    dz2    dxz  x2-y2    tot
    1  0.176  0.008  0.000  0.023  0.063  0.000  0.360  0.000  0.021  0.650
    2  0.176  0.008  0.000  0.023  0.063  0.000  0.360  0.000  0.021  0.650
tot    0.351  0.015  0.000  0.045  0.126  0.000  0.721  0.000  0.042  1.301
 
band    26 # energy   46.78704853 # occ.  0.00000000
 
ion      s     py     pz     px    dxy    dyz    dz2    dxz  x2-y2    tot
    1  0.392  0.002  0.000  0.006  0.198  0.000  0.053  0.000  0.066  0.716
    2  0.392  0.002  0.000  0.006  0.198  0.000  0.053  0.000  0.066  0.716
tot    0.783  0.004  0.000  0.012  0.396  0.000  0.105  0.000  0.132  1.431
 
band    27 # energy   47.52095430 # occ.  0.00000000
 
ion      s     py     pz     px    dxy    dyz    dz2    dxz  x2-y2    tot
    1  2.783  0.001  0.000  0.003  0.022  0.000  0.008  0.000  0.007  2.824