PROCAR lm decomposed
# of k-points:   70         # of bands:   16         # of ions:    2

 k-point     1 :    0.00000000 0.00000000 0.00000000     weight = 0.00125000

band     1 # energy    1.47961064 # occ.  1.00000000
 
ion      s     py     pz     px    dxy    dyz    dz2    dxz  x2-y2    tot
    1  0.369  0.000  0.000  0.000  0.000  0.000  0.000  0.000  0.000  0.369
    2  0.369  0.000  0.000  0.000  0.000  0.000  0.000  0.000  0.000  0.369
tot    0.739  0.000  0.000  0.000  0.000  0.000  0.000  0.000  0.000  0.739
 
band     2 # energy    5.26236876 # occ.  1.00000000
 
ion      s     py     pz     px    dxy    dyz    dz2    dxz  x2-y2    tot
    1  0.082  0.000  0.000  0.000  0.000  0.000  0.368  0.000  0.000  0.450
    2  0.082  0.000  0.000  0.000  0.000  0.000  0.368  0.000  0.000  0.450
tot    0.163  0.000  0.000  0.000  0.000  0.000  0.736  0.000  0.000  0.899
 
band     3 # energy    7.82352276 # occ.  1.00000000
 
ion      s     py     pz     px    dxy    dyz    dz2    dxz  x2-y2    tot
    1  0.000  0.000  0.000  0.000  0.000  0.000  0.487  0.000  0.000  0.487
    2  0.000  0.000  0.000  0.000  0.000  0.000  0.487  0.000  0.000  0.487
tot    0.000  0.000  0.000  0.000  0.000  0.000  0.973  0.000  0.000  0.973
 
band     4 # energy    7.84463952 # occ.  1.00000000
 
ion      s     py     pz     px    dxy    dyz    dz2    dxz  x2-y2    tot
    1  0.000  0.000  0.000  0.000  0.362  0.000  0.000  0.000  0.121  0.483
    2  0.000  0.000  0.000  0.000  0.362  0.000  0.000  0.000  0.121  0.483
tot    0.000  0.000  0.000  0.001  0.724  0.000  0.000  0.000  0.241  0.967
 
band     5 # energy    7.84464041 # occ.  1.00000000
 
ion      s     py     pz     px    dxy    dyz    dz2    dxz  x2-y2    tot
    1  0.000  0.000  0.000  0.000  0.121  0.000  0.000  0.000  0.362  0.483
    2  0.000  0.000  0.000  0.000  0.121  0.000  0.000  0.000  0.362  0.483
tot    0.000  0.001  0.000  0.000  0.241  0.000  0.000  0.000  0.724  0.967
 
band     6 # energy    8.16338102 # occ.  1.00000000
 
ion      s     py     pz     px    dxy    dyz    dz2    dxz  x2-y2    tot
    1  0.000  0.000  0.000  0.001  0.365  0.000  0.000  0.000  0.122  0.488
    2  0.000  0.000  0.000  0.001  0.365  0.000  0.000  0.000  0.122  0.488
tot    0.000  0.000  0.000  0.001  0.731  0.000  0.000  0.000  0.244  0.976
 
band     7 # energy    8.16338196 # occ.  1.00000000
 
ion      s     py     pz     px    dxy    dyz    dz2    dxz  x2-y2    tot
    1  0.000  0.001  0.000  0.000  0.122  0.000  0.000  0.000  0.365  0.488
    2  0.000  0.001  0.000  0.000  0.122  0.000  0.000  0.000  0.365  0.488
tot    0.000  0.001  0.000  0.000  0.244  0.000  0.000  0.000  0.731  0.976
 
band     8 # energy    8.52610973 # occ.  1.00000000
 
ion      s     py     pz     px    dxy    dyz    dz2    dxz  x2-y2    tot
    1  0.000  0.000  0.000  0.000  0.000  0.368  0.000  0.123  0.000  0.490
    2  0.000  0.000  0.000  0.000  0.000  0.368  0.000  0.123  0.000  0.490
tot    0.000  0.000  0.000  0.000  0.000  0.735  0.000  0.245  0.000  0.980
 
band     9 # energy    8.52611019 # occ.  1.00000000
 
ion      s     py     pz     px    dxy    dyz    dz2    dxz  x2-y2    tot
    1  0.000  0.000  0.000  0.000  0.000  0.123  0.000  0.368  0.000  0.490
    2  0.000  0.000  0.000  0.000  0.000  0.123  0.000  0.368  0.000  0.490
tot    0.000  0.000  0.000  0.000  0.000  0.245  0.000  0.735  0.000  0.980
 
band    10 # energy    9.65021115 # occ.  1.00000000
 
ion      s     py     pz     px    dxy    dyz    dz2    dxz  x2-y2    tot
    1  0.000  0.000  0.000  0.000  0.000  0.369  0.000  0.123  0.000  0.493
    2  0.000  0.000  0.000  0.000  0.000  0.369  0.000  0.123  0.000  0.493
tot    0.000  0.000  0.000  0.000  0.000  0.739  0.000  0.246  0.000  0.985
 
band    11 # energy    9.65021178 # occ.  1.00000000
 
ion      s     py     pz     px    dxy    dyz    dz2    dxz  x2-y2    tot
    1  0.000  0.000  0.000  0.000  0.000  0.123  0.000  0.369  0.000  0.493
    2  0.000  0.000  0.000  0.000  0.000  0.123  0.000  0.369  0.000  0.493
tot    0.000  0.000  0.000  0.000  0.000  0.246  0.000  0.739  0.000  0.985
 
band    12 # energy   10.40090401 # occ.  0.85378930
 
ion      s     py     pz     px    dxy    dyz    dz2    dxz  x2-y2    tot
    1  0.000  0.000  0.352  0.000  0.000  0.000  0.000  0.000  0.000  0.352
    2  0.000  0.000  0.352  0.000  0.000  0.000  0.000  0.000  0.000  0.352
tot    0.000  0.000  0.704  0.000  0.000  0.000  0.000  0.000  0.000  0.704
 
band    13 # energy   16.96813768 # occ.  0.00000000
 
ion      s     py     pz     px    dxy    dyz    dz2    dxz  x2-y2    tot
    1  0.226  0.000  0.000  0.000  0.000  0.000  0.231  0.000  0.000  0.458
    2  0.226  0.000  0.000  0.000  0.000  0.000  0.231  0.000  0.000  0.458
tot    0.452  0.000  0.000  0.000  0.000  0.000  0.463  0.000  0.000  0.915
 
band    14 # energy   32.62016714 # occ.  0.00000000
 
ion      s     py     pz     px    dxy    dyz    dz2    dxz  x2-y2    tot
    1  0.007  0.000  0.000  0.000  0.000  0.000  0.033  0.000  0.000  0.039
    2  0.007  0.000  0.000  0.000  0.000  0.000  0.033  0.000  0.000  0.039
tot    0.013  0.000  0.000  0.000  0.000  0.000  0.065  0.000  0.000  0.079
 
band    15 # energy   35.34468076 # occ.  0.00000000
 
ion      s     py     pz     px    dxy    dyz    dz2    dxz  x2-y2    tot
    1  0.000  0.256  0.000  0.014  0.006  0.000  0.000  0.000  0.118  0.393
    2  0.000  0.256  0.000  0.014  0.006  0.000  0.000  0.000  0.118  0.393
tot    0.000  0.511  0.000  0.027  0.013  0.000  0.000  0.000  0.235  0.787
 
band    16 # energy   35.34471402 # occ.  0.00000000
 
ion      s     py     pz     px    dxy    dyz    dz2    dxz  x2-y2    tot
    1  0.000  0.014  0.000  0.256  0.118  0.000  0.000  0.000  0.006  0.393
    2  0.000  0.014  0.000  0.256  0.118  0.000  0.000  0.000  0.006  0.393
tot    0.000  0.027  0.000  0.511  0.235  0.000  0.000  0.000  0.013  0.787
 

 k-point     2 :    0.10000000-0.00000000 0.00000000     weight = 0.00750000

band     1 # energy    1.83308614 # occ.  1.00000000
 
ion      s     py     pz     px    dxy    dyz    dz2    dxz  x2-y2    tot
    1  0.357  0.003  0.000  0.009  0.000  0.000  0.000  0.000  0.000  0.370
    2  0.357  0.003  0.000  0.009  0.000  0.000  0.000  0.000  0.000  0.370
tot    0.714  0.006  0.000  0.018  0.000  0.000  0.000  0.000  0.000  0.740
 
band     2 # energy    5.47080072 # occ.  1.00000000
 
ion      s     py     pz     px    dxy    dyz    dz2    dxz  x2-y2    tot
    1  0.071  0.002  0.000  0.005  0.003  0.000  0.369  0.000  0.001  0.451
    2  0.071  0.002  0.000  0.005  0.003  0.000  0.369  0.000  0.001  0.451
tot    0.142  0.004  0.000  0.011  0.007  0.000  0.737  0.000  0.002  0.902
 
band     3 # energy    7.55061218 # occ.  1.00000000
 
ion      s     py     pz     px    dxy    dyz    dz2    dxz  x2-y2    tot
    1  0.000  0.000  0.000  0.001  0.244  0.000  0.153  0.000  0.081  0.480
    2  0.000  0.000  0.000  0.001  0.244  0.000  0.153  0.000  0.081  0.480
tot    0.000  0.001  0.000  0.003  0.488  0.000  0.306  0.000  0.163  0.961
 
band     4 # energy    8.01010740 # occ.  1.00000000
 
ion      s     py     pz     px    dxy    dyz    dz2    dxz  x2-y2    tot
    1  0.000  0.001  0.000  0.000  0.121  0.000  0.000  0.000  0.362  0.484
    2  0.000  0.001  0.000  0.000  0.121  0.000  0.000  0.000  0.362  0.484
tot    0.000  0.002  0.000  0.001  0.241  0.000  0.000  0.000  0.723  0.967
 
band     5 # energy    8.03999174 # occ.  1.00000000
 
ion      s     py     pz     px    dxy    dyz    dz2    dxz  x2-y2    tot
    1  0.001  0.000  0.000  0.001  0.232  0.000  0.174  0.000  0.077  0.486
    2  0.001  0.000  0.000  0.001  0.232  0.000  0.174  0.000  0.077  0.486
tot    0.001  0.000  0.000  0.001  0.465  0.000  0.349  0.000  0.155  0.972
 
band     6 # energy    8.12410603 # occ.  1.00000000
 
ion      s     py     pz     px    dxy    dyz    dz2    dxz  x2-y2    tot
    1  0.001  0.000  0.000  0.000  0.242  0.000  0.162  0.000  0.081  0.486
    2  0.001  0.000  0.000  0.000  0.242  0.000  0.162  0.000  0.081  0.486
tot    0.002  0.000  0.000  0.001  0.484  0.000  0.324  0.000  0.161  0.972
 
band     7 # energy    8.26922653 # occ.  1.00000000
 
ion      s     py     pz     px    dxy    dyz    dz2    dxz  x2-y2    tot
    1  0.000  0.000  0.028  0.000  0.000  0.111  0.000  0.334  0.000  0.474
    2  0.000  0.000  0.028  0.000  0.000  0.111  0.000  0.334  0.000  0.474
tot    0.000  0.000  0.055  0.000  0.000  0.223  0.000  0.669  0.000  0.947
 
band     8 # energy    8.31007932 # occ.  1.00000000
 
ion      s     py     pz     px    dxy    dyz    dz2    dxz  x2-y2    tot
    1  0.000  0.001  0.000  0.000  0.122  0.000  0.000  0.000  0.365  0.488
    2  0.000  0.001  0.000  0.000  0.122  0.000  0.000  0.000  0.365  0.488
tot    0.000  0.002  0.000  0.001  0.243  0.000  0.000  0.000  0.730  0.976
 
band     9 # energy    8.42421085 # occ.  1.00000000
 
ion      s     py     pz     px    dxy    dyz    dz2    dxz  x2-y2    tot
    1  0.000  0.000  0.000  0.000  0.000  0.367  0.000  0.122  0.000  0.489
    2  0.000  0.000  0.000  0.000  0.000  0.367  0.000  0.122  0.000  0.489
tot    0.000  0.000  0.000  0.000  0.000  0.733  0.000  0.244  0.000  0.978
 
band    10 # energy    8.74164851 # occ.  1.00000000
 
ion      s     py     pz     px    dxy    dyz    dz2    dxz  x2-y2    tot
    1  0.000  0.000  0.077  0.000  0.000  0.095  0.000  0.285  0.000  0.457
    2  0.000  0.000  0.077  0.000  0.000  0.095  0.000  0.285  0.000  0.457
tot    0.000  0.000  0.154  0.000  0.000  0.190  0.000  0.570  0.000  0.914
 
band    11 # energy    9.69273676 # occ.  1.00000000
 
ion      s     py     pz     px    dxy    dyz    dz2    dxz  x2-y2    tot
    1  0.000  0.000  0.000  0.000  0.000  0.370  0.000  0.123  0.000  0.493
    2  0.000  0.000  0.000  0.000  0.000  0.370  0.000  0.123  0.000  0.493
tot    0.000  0.000  0.000  0.000  0.000  0.740  0.000  0.247  0.000  0.987
 
band    12 # energy   11.80566008 # occ.  0.00000000
 
ion      s     py     pz     px    dxy    dyz    dz2    dxz  x2-y2    tot
    1  0.000  0.000  0.242  0.000  0.000  0.040  0.000  0.121  0.000  0.404
    2  0.000  0.000  0.242  0.000  0.000  0.040  0.000  0.121  0.000  0.404
tot    0.000  0.000  0.484  0.000  0.000  0.081  0.000  0.243  0.000  0.808
 
band    13 # energy   17.02975767 # occ.  0.00000000
 
ion      s     py     pz     px    dxy    dyz    dz2    dxz  x2-y2    tot
    1  0.220  0.003  0.000  0.008  0.000  0.000  0.223  0.000  0.000  0.454
    2  0.220  0.003  0.000  0.008  0.000  0.000  0.223  0.000  0.000  0.454
tot    0.441  0.005  0.000  0.016  0.000  0.000  0.445  0.000  0.000  0.908
 
band    14 # energy   30.07941826 # occ.  0.00000000
 
ion      s     py     pz     px    dxy    dyz    dz2    dxz  x2-y2    tot
    1  0.018  0.028  0.000  0.084  0.120  0.000  0.024  0.000  0.040  0.315
    2  0.018  0.028  0.000  0.084  0.120  0.000  0.024  0.000  0.040  0.315
tot    0.037  0.056  0.000  0.168  0.241  0.000  0.047  0.000  0.080  0.630
 
band    15 # energy   32.68554717 # occ.  0.00000000
 
ion      s     py     pz     px    dxy    dyz    dz2    dxz  x2-y2    tot
    1  0.000  0.177  0.000  0.059  0.041  0.000  0.000  0.000  0.124  0.402
    2  0.000  0.177  0.000  0.059  0.041  0.000  0.000  0.000  0.124  0.402
tot    0.000  0.355  0.000  0.118  0.083  0.000  0.000  0.000  0.248  0.804
 
band    16 # energy   32.94448321 # occ.  0.00000000
 
ion      s     py     pz     px    dxy    dyz    dz2    dxz  x2-y2    tot
    1  0.023  0.017  0.000  0.050  0.076  0.000  0.043  0.000  0.025  0.234
    2  0.023  0.017  0.000  0.050  0.076  0.000  0.043  0.000  0.025  0.234
tot    0.047  0.033  0.000  0.099  0.152  0.000  0.087  0.000  0.051  0.468
 

 k-point     3 :    0.20000000-0.00000000 0.00000000     weight = 0.00750000

band     1 # energy    2.83406639 # occ.  1.00000000
 
ion      s     py     pz     px    dxy    dyz    dz2    dxz  x2-y2    tot
    1  0.320  0.011  0.000  0.033  0.005  0.000  0.002  0.000  0.002  0.372
    2  0.320  0.011  0.000  0.033  0.005  0.000  0.002  0.000  0.002  0.372
tot    0.639  0.022  0.000  0.066  0.010  0.000  0.004  0.000  0.003  0.744
 
band     2 # energy    5.92169067 # occ.  1.00000000
 
ion      s     py     pz     px    dxy    dyz    dz2    dxz  x2-y2    tot
    1  0.042  0.005  0.000  0.014  0.042  0.000  0.340  0.000  0.014  0.456
    2  0.042  0.005  0.000  0.014  0.042  0.000  0.340  0.000  0.014  0.456
tot    0.083  0.009  0.000  0.028  0.084  0.000  0.680  0.000  0.028  0.912
 
band     3 # energy    7.23314675 # occ.  1.00000000
 
ion      s     py     pz     px    dxy    dyz    dz2    dxz  x2-y2    tot
    1  0.001  0.003  0.000  0.009  0.259  0.000  0.114  0.000  0.086  0.471
    2  0.001  0.003  0.000  0.009  0.259  0.000  0.114  0.000  0.086  0.471
tot    0.001  0.006  0.000  0.017  0.518  0.000  0.229  0.000  0.173  0.943
 
band     4 # energy    7.33143005 # occ.  1.00000000
 
ion      s     py     pz     px    dxy    dyz    dz2    dxz  x2-y2    tot
    1  0.000  0.000  0.061  0.000  0.000  0.097  0.000  0.291  0.000  0.449
    2  0.000  0.000  0.061  0.000  0.000  0.097  0.000  0.291  0.000  0.449
tot    0.000  0.000  0.123  0.000  0.000  0.194  0.000  0.581  0.000  0.897
 
band     5 # energy    7.88516346 # occ.  1.00000000
 
ion      s     py     pz     px    dxy    dyz    dz2    dxz  x2-y2    tot
    1  0.007  0.001  0.000  0.002  0.299  0.000  0.074  0.000  0.100  0.482
    2  0.007  0.001  0.000  0.002  0.299  0.000  0.074  0.000  0.100  0.482
tot    0.013  0.001  0.000  0.004  0.597  0.000  0.147  0.000  0.199  0.963
 
band     6 # energy    8.18998137 # occ.  1.00000000
 
ion      s     py     pz     px    dxy    dyz    dz2    dxz  x2-y2    tot
    1  0.000  0.000  0.000  0.000  0.000  0.365  0.000  0.122  0.000  0.486
    2  0.000  0.000  0.000  0.000  0.000  0.365  0.000  0.122  0.000  0.486
tot    0.000  0.000  0.000  0.000  0.000  0.730  0.000  0.243  0.000  0.973
 
band     7 # energy    8.40288475 # occ.  1.00000000
 
ion      s     py     pz     px    dxy    dyz    dz2    dxz  x2-y2    tot
    1  0.000  0.000  0.031  0.000  0.000  0.111  0.000  0.334  0.000  0.476
    2  0.000  0.000  0.031  0.000  0.000  0.111  0.000  0.334  0.000  0.476
tot    0.000  0.000  0.061  0.000  0.000  0.223  0.000  0.668  0.000  0.952
 
band     8 # energy    8.46442247 # occ.  1.00000000
 
ion      s     py     pz     px    dxy    dyz    dz2    dxz  x2-y2    tot
    1  0.000  0.002  0.000  0.001  0.121  0.000  0.000  0.000  0.362  0.485
    2  0.000  0.002  0.000  0.001  0.121  0.000  0.000  0.000  0.362  0.485
tot    0.000  0.004  0.000  0.001  0.241  0.000  0.000  0.000  0.724  0.970
 
band     9 # energy    8.48815696 # occ.  1.00000000
 
ion      s     py     pz     px    dxy    dyz    dz2    dxz  x2-y2    tot
    1  0.003  0.001  0.000  0.002  0.105  0.000  0.340  0.000  0.035  0.487
    2  0.003  0.001  0.000  0.002  0.105  0.000  0.340  0.000  0.035  0.487
tot    0.005  0.002  0.000  0.005  0.211  0.000  0.680  0.000  0.070  0.973
 
band    10 # energy    8.70774698 # occ.  1.00000000
 
ion      s     py     pz     px    dxy    dyz    dz2    dxz  x2-y2    tot
    1  0.000  0.002  0.000  0.001  0.122  0.000  0.000  0.000  0.365  0.489
    2  0.000  0.002  0.000  0.001  0.122  0.000  0.000  0.000  0.365  0.489
tot    0.000  0.004  0.000  0.001  0.243  0.000  0.000  0.000  0.730  0.978
 
band    11 # energy    9.77301480 # occ.  1.00000000
 
ion      s     py     pz     px    dxy    dyz    dz2    dxz  x2-y2    tot
    1  0.000  0.000  0.000  0.000  0.000  0.371  0.000  0.124  0.000  0.495
    2  0.000  0.000  0.000  0.000  0.000  0.371  0.000  0.124  0.000  0.495
tot    0.000  0.000  0.000  0.000  0.000  0.742  0.000  0.247  0.000  0.990
 
band    12 # energy   13.82147188 # occ.  0.00000000
 
ion      s     py     pz     px    dxy    dyz    dz2    dxz  x2-y2    tot
    1  0.000  0.000  0.242  0.000  0.000  0.042  0.000  0.127  0.000  0.411
    2  0.000  0.000  0.242  0.000  0.000  0.042  0.000  0.127  0.000  0.411
tot    0.000  0.000  0.483  0.000  0.000  0.085  0.000  0.254  0.000  0.822
 
band    13 # energy   17.25513051 # occ.  0.00000000
 
ion      s     py     pz     px    dxy    dyz    dz2    dxz  x2-y2    tot
    1  0.197  0.012  0.000  0.037  0.001  0.000  0.197  0.000  0.000  0.443
    2  0.197  0.012  0.000  0.037  0.001  0.000  0.197  0.000  0.000  0.443
tot    0.394  0.025  0.000  0.074  0.001  0.000  0.393  0.000  0.000  0.887
 
band    14 # energy   25.45046517 # occ.  0.00000000
 
ion      s     py     pz     px    dxy    dyz    dz2    dxz  x2-y2    tot
    1  0.060  0.038  0.000  0.113  0.116  0.000  0.022  0.000  0.039  0.387
    2  0.060  0.038  0.000  0.113  0.116  0.000  0.022  0.000  0.039  0.387
tot    0.119  0.075  0.000  0.226  0.232  0.000  0.044  0.000  0.077  0.774
 
band    15 # energy   29.88111623 # occ.  0.00000000
 
ion      s     py     pz     px    dxy    dyz    dz2    dxz  x2-y2    tot
    1  0.000  0.198  0.000  0.066  0.029  0.000  0.000  0.000  0.086  0.379
    2  0.000  0.198  0.000  0.066  0.029  0.000  0.000  0.000  0.086  0.379
tot    0.000  0.397  0.000  0.132  0.057  0.000  0.000  0.000  0.172  0.758
 
band    16 # energy   31.80696734 # occ.  0.00000000
 
ion      s     py     pz     px    dxy    dyz    dz2    dxz  x2-y2    tot
    1  0.017  0.004  0.000  0.013  0.182  0.000  0.048  0.000  0.061  0.324
    2  0.017  0.004  0.000  0.013  0.182  0.000  0.048  0.000  0.061  0.324
tot    0.033  0.009  0.000  0.027  0.363  0.000  0.095  0.000  0.121  0.648
 

 k-point     4 :    0.30000000 0.00000000 0.00000000     weight = 0.00750000

band     1 # energy    4.22771203 # occ.  1.00000000
 
ion      s     py     pz     px    dxy    dyz    dz2    dxz  x2-y2    tot
    1  0.248  0.018  0.000  0.055  0.039  0.000  0.011  0.000  0.013  0.384
    2  0.248  0.018  0.000  0.055  0.039  0.000  0.011  0.000  0.013  0.384
tot    0.495  0.037  0.000  0.110  0.077  0.000  0.023  0.000  0.026  0.767
 
band     2 # energy    6.04595298 # occ.  1.00000000
 
ion      s     py     pz     px    dxy    dyz    dz2    dxz  x2-y2    tot
    1  0.017  0.002  0.000  0.006  0.179  0.000  0.199  0.000  0.060  0.463
    2  0.017  0.002  0.000  0.006  0.179  0.000  0.199  0.000  0.060  0.463
tot    0.034  0.004  0.000  0.012  0.359  0.000  0.399  0.000  0.120  0.927
 
band     3 # energy    6.55986970 # occ.  1.00000000
 
ion      s     py     pz     px    dxy    dyz    dz2    dxz  x2-y2    tot
    1  0.000  0.000  0.042  0.000  0.000  0.101  0.000  0.304  0.000  0.448
    2  0.000  0.000  0.042  0.000  0.000  0.101  0.000  0.304  0.000  0.448
tot    0.000  0.000  0.084  0.000  0.000  0.203  0.000  0.609  0.000  0.896
 
band     4 # energy    7.20687237 # occ.  1.00000000
 
ion      s     py     pz     px    dxy    dyz    dz2    dxz  x2-y2    tot
    1  0.004  0.013  0.000  0.038  0.196  0.000  0.139  0.000  0.065  0.455
    2  0.004  0.013  0.000  0.038  0.196  0.000  0.139  0.000  0.065  0.455
tot    0.008  0.026  0.000  0.077  0.391  0.000  0.278  0.000  0.130  0.910
 
band     5 # energy    7.89891818 # occ.  1.00000000
 
ion      s     py     pz     px    dxy    dyz    dz2    dxz  x2-y2    tot
    1  0.011  0.003  0.000  0.008  0.176  0.000  0.222  0.000  0.059  0.479
    2  0.011  0.003  0.000  0.008  0.176  0.000  0.222  0.000  0.059  0.479
tot    0.022  0.005  0.000  0.016  0.352  0.000  0.445  0.000  0.117  0.957
 
band     6 # energy    7.93901343 # occ.  1.00000000
 
ion      s     py     pz     px    dxy    dyz    dz2    dxz  x2-y2    tot
    1  0.000  0.000  0.000  0.000  0.000  0.363  0.000  0.121  0.000  0.484
    2  0.000  0.000  0.000  0.000  0.000  0.363  0.000  0.121  0.000  0.484
tot    0.000  0.000  0.000  0.000  0.000  0.727  0.000  0.242  0.000  0.969
 
band     7 # energy    8.16929402 # occ.  1.00000000
 
ion      s     py     pz     px    dxy    dyz    dz2    dxz  x2-y2    tot
    1  0.000  0.000  0.028  0.000  0.000  0.112  0.000  0.336  0.000  0.476
    2  0.000  0.000  0.028  0.000  0.000  0.112  0.000  0.336  0.000  0.476
tot    0.000  0.000  0.056  0.000  0.000  0.224  0.000  0.672  0.000  0.952
 
band     8 # energy    9.07015891 # occ.  1.00000000
 
ion      s     py     pz     px    dxy    dyz    dz2    dxz  x2-y2    tot
    1  0.000  0.001  0.000  0.000  0.122  0.000  0.000  0.000  0.365  0.488
    2  0.000  0.001  0.000  0.000  0.122  0.000  0.000  0.000  0.365  0.488
tot    0.000  0.003  0.000  0.001  0.243  0.000  0.000  0.000  0.729  0.976
 
band     9 # energy    9.15603475 # occ.  1.00000000
 
ion      s     py     pz     px    dxy    dyz    dz2    dxz  x2-y2    tot
    1  0.012  0.004  0.000  0.011  0.103  0.000  0.319  0.000  0.034  0.484
    2  0.012  0.004  0.000  0.011  0.103  0.000  0.319  0.000  0.034  0.484
tot    0.024  0.007  0.000  0.022  0.206  0.000  0.638  0.000  0.069  0.967
 
band    10 # energy    9.23664175 # occ.  1.00000000
 
ion      s     py     pz     px    dxy    dyz    dz2    dxz  x2-y2    tot
    1  0.000  0.002  0.000  0.001  0.122  0.000  0.000  0.000  0.366  0.491
    2  0.000  0.002  0.000  0.001  0.122  0.000  0.000  0.000  0.366  0.491
tot    0.000  0.005  0.000  0.002  0.244  0.000  0.000  0.000  0.732  0.983
 
band    11 # energy    9.83614397 # occ.  1.00000000
 
ion      s     py     pz     px    dxy    dyz    dz2    dxz  x2-y2    tot
    1  0.000  0.000  0.000  0.000  0.000  0.372  0.000  0.124  0.000  0.496
    2  0.000  0.000  0.000  0.000  0.000  0.372  0.000  0.124  0.000  0.496
tot    0.000  0.000  0.000  0.000  0.000  0.744  0.000  0.248  0.000  0.992
 
band    12 # energy   16.10791020 # occ.  0.00000000
 
ion      s     py     pz     px    dxy    dyz    dz2    dxz  x2-y2    tot
    1  0.000  0.000  0.246  0.000  0.000  0.042  0.000  0.125  0.000  0.413
    2  0.000  0.000  0.246  0.000  0.000  0.042  0.000  0.125  0.000  0.413
tot    0.000  0.000  0.491  0.000  0.000  0.084  0.000  0.251  0.000  0.826
 
band    13 # energy   17.59889926 # occ.  0.00000000
 
ion      s     py     pz     px    dxy    dyz    dz2    dxz  x2-y2    tot
    1  0.110  0.039  0.000  0.117  0.000  0.000  0.161  0.000  0.000  0.427
    2  0.110  0.039  0.000  0.117  0.000  0.000  0.161  0.000  0.000  0.427
tot    0.220  0.078  0.000  0.234  0.001  0.000  0.322  0.000  0.000  0.854
 
band    14 # energy   21.31068467 # occ.  0.00000000
 
ion      s     py     pz     px    dxy    dyz    dz2    dxz  x2-y2    tot
    1  0.158  0.024  0.000  0.071  0.106  0.000  0.011  0.000  0.035  0.405
    2  0.158  0.024  0.000  0.071  0.106  0.000  0.011  0.000  0.035  0.405
tot    0.316  0.047  0.000  0.142  0.212  0.000  0.023  0.000  0.071  0.811
 
band    15 # energy   27.60209315 # occ.  0.00000000
 
ion      s     py     pz     px    dxy    dyz    dz2    dxz  x2-y2    tot
    1  0.000  0.220  0.000  0.073  0.015  0.000  0.000  0.000  0.045  0.354
    2  0.000  0.220  0.000  0.073  0.015  0.000  0.000  0.000  0.045  0.354
tot    0.000  0.440  0.000  0.147  0.030  0.000  0.000  0.000  0.091  0.707
 
band    16 # energy   28.82412332 # occ.  0.00000000
 
ion      s     py     pz     px    dxy    dyz    dz2    dxz  x2-y2    tot
    1  0.000  0.000  0.090  0.000  0.000  0.062  0.000  0.187  0.000  0.340
    2  0.000  0.000  0.090  0.000  0.000  0.062  0.000  0.187  0.000  0.340
tot    0.000  0.000  0.180  0.000  0.000  0.125  0.000  0.375  0.000  0.679
 

 k-point     5 :    0.40000000 0.00000000 0.00000000     weight = 0.00750000

band     1 # energy    5.31411064 # occ.  1.00000000
 
ion      s     py     pz     px    dxy    dyz    dz2    dxz  x2-y2    tot
    1  0.128  0.012  0.000  0.036  0.161  0.000  0.031  0.000  0.054  0.422
    2  0.128  0.012  0.000  0.036  0.161  0.000  0.031  0.000  0.054  0.422
tot    0.256  0.024  0.000  0.073  0.321  0.000  0.063  0.000  0.107  0.844
 
band     2 # energy    5.82685761 # occ.  1.00000000
 
ion      s     py     pz     px    dxy    dyz    dz2    dxz  x2-y2    tot
    1  0.020  0.001  0.000  0.002  0.244  0.000  0.114  0.000  0.081  0.462
    2  0.020  0.001  0.000  0.002  0.244  0.000  0.114  0.000  0.081  0.462
tot    0.040  0.001  0.000  0.003  0.489  0.000  0.228  0.000  0.163  0.924
 
band     3 # energy    6.09439296 # occ.  1.00000000
 
ion      s     py     pz     px    dxy    dyz    dz2    dxz  x2-y2    tot
    1  0.000  0.000  0.024  0.000  0.000  0.106  0.000  0.319  0.000  0.449
    2  0.000  0.000  0.024  0.000  0.000  0.106  0.000  0.319  0.000  0.449
tot    0.000  0.000  0.047  0.000  0.000  0.213  0.000  0.638  0.000  0.899
 
band     4 # energy    7.58693110 # occ.  1.00000000
 
ion      s     py     pz     px    dxy    dyz    dz2    dxz  x2-y2    tot
    1  0.026  0.028  0.000  0.085  0.092  0.000  0.167  0.000  0.031  0.428
    2  0.026  0.028  0.000  0.085  0.092  0.000  0.167  0.000  0.031  0.428
tot    0.051  0.057  0.000  0.170  0.184  0.000  0.334  0.000  0.061  0.856
 
band     5 # energy    7.75532532 # occ.  1.00000000
 
ion      s     py     pz     px    dxy    dyz    dz2    dxz  x2-y2    tot
    1  0.000  0.000  0.000  0.000  0.000  0.363  0.000  0.121  0.000  0.483
    2  0.000  0.000  0.000  0.000  0.000  0.363  0.000  0.121  0.000  0.483
tot    0.000  0.000  0.000  0.000  0.000  0.725  0.000  0.242  0.000  0.967
 
band     6 # energy    7.99339060 # occ.  1.00000000
 
ion      s     py     pz     px    dxy    dyz    dz2    dxz  x2-y2    tot
    1  0.000  0.000  0.030  0.000  0.000  0.111  0.000  0.334  0.000  0.475
    2  0.000  0.000  0.030  0.000  0.000  0.111  0.000  0.334  0.000  0.475
tot    0.000  0.000  0.059  0.000  0.000  0.223  0.000  0.668  0.000  0.949
 
band     7 # energy    8.15196052 # occ.  1.00000000
 
ion      s     py     pz     px    dxy    dyz    dz2    dxz  x2-y2    tot
    1  0.003  0.005  0.000  0.015  0.076  0.000  0.356  0.000  0.025  0.481
    2  0.003  0.005  0.000  0.015  0.076  0.000  0.356  0.000  0.025  0.481
tot    0.007  0.010  0.000  0.030  0.153  0.000  0.712  0.000  0.051  0.961
 
band     8 # energy    9.58492647 # occ.  1.00000000
 
ion      s     py     pz     px    dxy    dyz    dz2    dxz  x2-y2    tot
    1  0.000  0.000  0.000  0.000  0.123  0.000  0.000  0.000  0.370  0.493
    2  0.000  0.000  0.000  0.000  0.123  0.000  0.000  0.000  0.370  0.493
tot    0.000  0.000  0.000  0.000  0.246  0.000  0.000  0.000  0.739  0.986
 
band     9 # energy    9.72178478 # occ.  1.00000000
 
ion      s     py     pz     px    dxy    dyz    dz2    dxz  x2-y2    tot
    1  0.000  0.001  0.000  0.000  0.123  0.000  0.000  0.000  0.370  0.495
    2  0.000  0.001  0.000  0.000  0.123  0.000  0.000  0.000  0.370  0.495
tot    0.000  0.003  0.000  0.001  0.246  0.000  0.000  0.000  0.739  0.989
 
band    10 # energy    9.86981104 # occ.  1.00000000
 
ion      s     py     pz     px    dxy    dyz    dz2    dxz  x2-y2    tot
    1  0.000  0.000  0.000  0.000  0.000  0.372  0.000  0.124  0.000  0.496
    2  0.000  0.000  0.000  0.000  0.000  0.372  0.000  0.124  0.000  0.496
tot    0.000  0.000  0.000  0.000  0.000  0.744  0.000  0.248  0.000  0.993
 
band    11 # energy   10.35451776 # occ.  0.99098072
 
ion      s     py     pz     px    dxy    dyz    dz2    dxz  x2-y2    tot
    1  0.036  0.015  0.000  0.045  0.099  0.000  0.239  0.000  0.033  0.467
    2  0.036  0.015  0.000  0.045  0.099  0.000  0.239  0.000  0.033  0.467
tot    0.072  0.030  0.000  0.090  0.197  0.000  0.479  0.000  0.066  0.934
 
band    12 # energy   16.12107688 # occ.  0.00000000
 
ion      s     py     pz     px    dxy    dyz    dz2    dxz  x2-y2    tot
    1  0.031  0.057  0.000  0.170  0.047  0.000  0.104  0.000  0.016  0.424
    2  0.031  0.057  0.000  0.170  0.047  0.000  0.104  0.000  0.016  0.424
tot    0.063  0.113  0.000  0.340  0.094  0.000  0.207  0.000  0.031  0.848
 
band    13 # energy   18.56241075 # occ.  0.00000000
 
ion      s     py     pz     px    dxy    dyz    dz2    dxz  x2-y2    tot
    1  0.000  0.000  0.252  0.000  0.000  0.040  0.000  0.120  0.000  0.411
    2  0.000  0.000  0.252  0.000  0.000  0.040  0.000  0.120  0.000  0.411
tot    0.000  0.000  0.503  0.000  0.000  0.080  0.000  0.240  0.000  0.823
 
band    14 # energy   20.09392279 # occ.  0.00000000
 
ion      s     py     pz     px    dxy    dyz    dz2    dxz  x2-y2    tot
    1  0.224  0.017  0.000  0.052  0.065  0.000  0.022  0.000  0.022  0.402
    2  0.224  0.017  0.000  0.052  0.065  0.000  0.022  0.000  0.022  0.402
tot    0.449  0.034  0.000  0.103  0.130  0.000  0.044  0.000  0.043  0.803
 
band    15 # energy   25.42227943 # occ.  0.00000000
 
ion      s     py     pz     px    dxy    dyz    dz2    dxz  x2-y2    tot
    1  0.000  0.000  0.112  0.000  0.000  0.066  0.000  0.198  0.000  0.376
    2  0.000  0.000  0.112  0.000  0.000  0.066  0.000  0.198  0.000  0.376
tot    0.000  0.000  0.224  0.000  0.000  0.132  0.000  0.396  0.000  0.752
 
band    16 # energy   26.06309889 # occ.  0.00000000
 
ion      s     py     pz     px    dxy    dyz    dz2    dxz  x2-y2    tot
    1  0.000  0.236  0.000  0.079  0.004  0.000  0.000  0.000  0.013  0.333
    2  0.000  0.236  0.000  0.079  0.004  0.000  0.000  0.000  0.013  0.333
tot    0.000  0.473  0.000  0.158  0.009  0.000  0.000  0.000  0.026  0.665
 

 k-point     6 :    0.50000000 0.00000000 0.00000000     weight = 0.00375000

band     1 # energy    5.63531001 # occ.  1.00000000
 
ion      s     py     pz     px    dxy    dyz    dz2    dxz  x2-y2    tot
    1  0.009  0.000  0.000  0.001  0.263  0.000  0.095  0.000  0.088  0.457
    2  0.009  0.000  0.000  0.001  0.263  0.000  0.095  0.000  0.088  0.457
tot    0.019  0.001  0.000  0.002  0.526  0.000  0.191  0.000  0.175  0.913
 
band     2 # energy    5.67410854 # occ.  1.00000000
 
ion      s     py     pz     px    dxy    dyz    dz2    dxz  x2-y2    tot
    1  0.087  0.006  0.000  0.018  0.226  0.000  0.035  0.000  0.075  0.447
    2  0.087  0.006  0.000  0.018  0.226  0.000  0.035  0.000  0.075  0.447
tot    0.174  0.012  0.000  0.037  0.452  0.000  0.069  0.000  0.151  0.894