<?xml version="1.0" encoding="ISO-8859-1"?>
<modeling>
 <generator>
  <i name="program" type="string">vasp </i>
  <i name="version" type="string">6.3.2  </i>
  <i name="subversion" type="string">27Jun22 (build Aug 12 2022 00:53:59) complex                          parallel </i>
  <i name="platform" type="string">tv2STD </i>
  <i name="date" type="string">2024 11 30 </i>
  <i name="time" type="string">15:55:53 </i>
 </generator>
 <incar>
  <i type="string" name="SYSTEM">Pt-fcc</i>
  <i type="int" name="ISTART">     0</i>
  <i type="string" name="PREC">accurate      normal | accurate</i>
  <i type="string" name="ALGO">Normal     Normal, Fast, Very_Fast</i>
  <i type="logical" name="ADDGRID"> F  </i>
  <i type="int" name="ICHARG">     2</i>
  <i type="int" name="INIWAV">     1</i>
  <i type="int" name="NELM">   100</i>
  <i type="int" name="IBRION">    -1</i>
  <i name="EDIFF">      0.00000100</i>
  <i name="EDIFFG">     -0.02000000</i>
  <i type="int" name="NSW">     0</i>
  <i type="int" name="ISIF">     2</i>
  <i type="int" name="ISYM">     1</i>
  <i name="ENCUT">    425.00000000</i>
  <i type="logical" name="LREAL"> F  </i>
  <i type="int" name="ISMEAR">     0</i>
  <i name="SIGMA">      0.05000000</i>
  <i type="int" name="NWRITE">     2</i>
  <i type="logical" name="LWAVE"> F  </i>
  <i type="logical" name="LCHARG"> F  </i>
 </incar>
 <primitive_cell>
  <structure name="primitive_cell" >
   <crystal>
    <varray name="basis" >
     <v>       0.00000000       1.97000000       1.97000000 </v>
     <v>       1.97000000       0.00000000       1.97000000 </v>
     <v>       1.97000000       1.97000000       0.00000000 </v>
    </varray>
    <i name="volume">     15.29074600 </i>
    <varray name="rec_basis" >
     <v>      -0.25380711       0.25380711       0.25380711 </v>
     <v>       0.25380711      -0.25380711       0.25380711 </v>
     <v>       0.25380711       0.25380711      -0.25380711 </v>
    </varray>
   </crystal>
   <varray name="positions" >
    <v>       0.00000000       0.00000000       0.00000000 </v>
   </varray>
  </structure>
  <varray name="primitive_index" >
   <v type="int" >        1 </v>
  </varray>
 </primitive_cell>
 <kpoints>
  <generation param="Monkhorst-Pack">
   <v type="int" name="divisions">       6        6        6 </v>
   <v name="usershift">      0.00000000       0.00000000       0.00000000 </v>
   <v name="genvec1">      0.16666667       0.00000000       0.00000000 </v>
   <v name="genvec2">      0.00000000       0.16666667       0.00000000 </v>
   <v name="genvec3">      0.00000000       0.00000000       0.16666667 </v>
   <v name="shift">      0.50000000       0.50000000       0.50000000 </v>
  </generation>
  <varray name="kpointlist" >
   <v>       0.08333333       0.08333333       0.08333333 </v>
   <v>       0.25000000       0.08333333       0.08333333 </v>
   <v>       0.41666667       0.08333333       0.08333333 </v>
   <v>      -0.41666667       0.08333333       0.08333333 </v>
   <v>      -0.25000000       0.08333333       0.08333333 </v>
   <v>      -0.08333333       0.08333333       0.08333333 </v>
   <v>       0.25000000       0.25000000       0.08333333 </v>
   <v>       0.41666667       0.25000000       0.08333333 </v>
   <v>      -0.41666667       0.25000000       0.08333333 </v>
   <v>      -0.25000000       0.25000000       0.08333333 </v>
   <v>      -0.08333333       0.25000000       0.08333333 </v>
   <v>       0.41666667       0.41666667       0.08333333 </v>
   <v>      -0.41666667       0.41666667       0.08333333 </v>
   <v>      -0.25000000       0.41666667       0.08333333 </v>
   <v>      -0.08333333       0.41666667       0.08333333 </v>
   <v>      -0.41666667      -0.41666667       0.08333333 </v>
   <v>      -0.25000000      -0.41666667       0.08333333 </v>
   <v>      -0.25000000      -0.25000000       0.08333333 </v>
   <v>       0.25000000       0.25000000       0.25000000 </v>
   <v>       0.41666667       0.25000000       0.25000000 </v>
   <v>      -0.41666667       0.25000000       0.25000000 </v>
   <v>      -0.25000000       0.25000000       0.25000000 </v>
   <v>       0.41666667       0.41666667       0.25000000 </v>
   <v>      -0.41666667       0.41666667       0.25000000 </v>
   <v>      -0.25000000       0.41666667       0.25000000 </v>
   <v>      -0.41666667      -0.41666667       0.25000000 </v>
   <v>       0.41666667       0.41666667       0.41666667 </v>
   <v>      -0.41666667       0.41666667       0.41666667 </v>
  </varray>
  <varray name="weights" >
   <v>       0.00925926 </v>
   <v>       0.02777778 </v>
   <v>       0.02777778 </v>
   <v>       0.02777778 </v>
   <v>       0.02777778 </v>
   <v>       0.02777778 </v>
   <v>       0.02777778 </v>
   <v>       0.05555556 </v>
   <v>       0.05555556 </v>
   <v>       0.05555556 </v>
   <v>       0.05555556 </v>
   <v>       0.02777778 </v>
   <v>       0.05555556 </v>
   <v>       0.05555556 </v>
   <v>       0.05555556 </v>
   <v>       0.02777778 </v>
   <v>       0.05555556 </v>
   <v>       0.02777778 </v>
   <v>       0.00925926 </v>
   <v>       0.02777778 </v>
   <v>       0.02777778 </v>
   <v>       0.02777778 </v>
   <v>       0.02777778 </v>
   <v>       0.05555556 </v>
   <v>       0.05555556 </v>
   <v>       0.02777778 </v>
   <v>       0.00925926 </v>
   <v>       0.02777778 </v>
  </varray>
 </kpoints>
 <parameters>
  <separator name="general" >
   <i type="string" name="SYSTEM">Pt-fcc</i>
   <i type="logical" name="LCOMPAT"> F  </i>
  </separator>
  <separator name="electronic" >
   <i type="string" name="PREC">accura</i>
   <i name="ENMAX">    425.00000000</i>
   <i name="ENAUG">    527.01400000</i>
   <i name="EDIFF">      0.00000100</i>
   <i type="int" name="IALGO">    38</i>
   <i type="int" name="IWAVPR">    10</i>
   <i type="int" name="NBANDS">    24</i>
   <i type="int" name="NBANDSLOW">    -1</i>
   <i type="int" name="NBANDSHIGH">    -1</i>
   <i name="NELECT">     16.00000000</i>
   <i type="int" name="TURBO">     0</i>
   <i type="int" name="IRESTART">     0</i>
   <i type="int" name="NREBOOT">     0</i>
   <i type="int" name="NMIN">     0</i>
   <i name="EREF">      0.00000000</i>
   <separator name="electronic smearing" >
    <i type="int" name="ISMEAR">     0</i>
    <i name="SIGMA">      0.05000000</i>
    <i name="KSPACING">      0.50000000</i>
    <i type="logical" name="KGAMMA"> T  </i>
    <i type="logical" name="KBLOWUP"> T  </i>
   </separator>
   <separator name="electronic projectors" >
    <i type="logical" name="LREAL"> F  </i>
    <v name="ROPT">      0.00000000</v>
    <i type="int" name="LMAXPAW">  -100</i>
    <i type="int" name="LMAXMIX">     2</i>
    <i type="logical" name="NLSPLINE"> F  </i>
   </separator>
   <separator name="electronic startup" >
    <i type="int" name="ISTART">     0</i>
    <i type="int" name="ICHARG">     2</i>
    <i type="int" name="INIWAV">     1</i>
   </separator>
   <separator name="electronic spin" >
    <i type="int" name="ISPIN">     1</i>
    <i type="logical" name="LNONCOLLINEAR"> F  </i>
    <v name="MAGMOM">      1.00000000</v>
    <i name="NUPDOWN">     -1.00000000</i>
    <i type="logical" name="LSORBIT"> F  </i>
    <v name="SAXIS">      0.00000000      0.00000000      1.00000000</v>
    <i type="logical" name="LSPIRAL"> F  </i>
    <v name="QSPIRAL">      0.00000000      0.00000000      0.00000000</v>
    <i type="logical" name="LZEROZ"> F  </i>
   </separator>
   <separator name="electronic exchange-correlation" >
    <i type="logical" name="LASPH"> F  </i>
    <i type="logical" name="LMETAGGA"> F  </i>
   </separator>
   <separator name="electronic convergence" >
    <i type="int" name="NELM">   100</i>
    <i type="int" name="NELMDL">    -5</i>
    <i type="int" name="NELMIN">     2</i>
    <i name="ENINI">    425.00000000</i>
    <separator name="electronic convergence detail" >
     <i type="logical" name="LDIAG"> T  </i>
     <i type="logical" name="LSUBROT"> F  </i>
     <i name="WEIMIN">      0.00000000</i>
     <i name="EBREAK">      0.00000001</i>
     <i name="DEPER">      0.30000000</i>
     <i type="int" name="NRMM">     4</i>
     <i name="TIME">      0.40000000</i>
    </separator>
   </separator>
   <separator name="electronic mixer" >
    <i name="AMIX">      0.40000000</i>
    <i name="BMIX">      1.00000000</i>
    <i name="AMIN">      0.10000000</i>
    <i name="AMIX_MAG">      1.60000000</i>
    <i name="BMIX_MAG">      1.00000000</i>
    <separator name="electronic mixer details" >
     <i type="int" name="IMIX">     4</i>
     <i type="logical" name="MIXFIRST"> F  </i>
     <i type="int" name="MAXMIX">   -45</i>
     <i name="WC">    100.00000000</i>
     <i type="int" name="INIMIX">     1</i>
     <i type="int" name="MIXPRE">     1</i>
     <i type="int" name="MREMOVE">     5</i>
    </separator>
   </separator>
   <separator name="electronic dipolcorrection" >
    <i type="logical" name="LDIPOL"> F  </i>
    <i type="logical" name="LMONO"> F  </i>
    <i type="int" name="IDIPOL">     0</i>
    <i name="EPSILON">      1.00000000</i>
    <v name="DIPOL">   -100.00000000   -100.00000000   -100.00000000</v>
    <i name="EFIELD">      0.00000000</i>
   </separator>
  </separator>
  <separator name="grids" >
   <i type="int" name="NGX">    20</i>
   <i type="int" name="NGY">    20</i>
   <i type="int" name="NGZ">    20</i>
   <i type="int" name="NGXF">    40</i>
   <i type="int" name="NGYF">    40</i>
   <i type="int" name="NGZF">    40</i>
   <i type="logical" name="ADDGRID"> F  </i>
  </separator>
  <separator name="ionic" >
   <i type="int" name="NSW">     0</i>
   <i type="int" name="IBRION">    -1</i>
   <i type="int" name="MDALGO">     0</i>
   <i type="int" name="ISIF">     2</i>
   <i name="PSTRESS">      0.00000000</i>
   <i name="EDIFFG">     -0.02000000</i>
   <i type="int" name="NFREE">     0</i>
   <i name="POTIM">      0.50000000</i>
   <i name="SMASS">     -3.00000000</i>
   <i name="SCALEE">      1.00000000</i>
  </separator>
  <separator name="ionic md" >
   <i name="TEBEG">      0.00010000</i>
   <i name="TEEND">      0.00010000</i>
   <i type="int" name="NBLOCK">     1</i>
   <i type="int" name="KBLOCK">     1</i>
   <i type="int" name="NPACO">   256</i>
   <i name="APACO">     10.00000000</i>
  </separator>
  <separator name="symmetry" >
   <i type="int" name="ISYM">     1</i>
   <i name="SYMPREC">      0.00001000</i>
  </separator>
  <separator name="dos" >
   <i type="int" name="LORBIT">     0</i>
   <v name="RWIGS">     -1.00000000</v>
   <i type="int" name="NEDOS">   301</i>
   <i name="EMIN">     10.00000000</i>
   <i name="EMAX">    -10.00000000</i>
   <i name="EFERMI">      0.00000000</i>
  </separator>
  <separator name="writing" >
   <i type="int" name="NWRITE">     2</i>
   <i type="logical" name="LWAVE"> F  </i>
   <i type="logical" name="LDOWNSAMPLE"> F  </i>
   <i type="logical" name="LCHARG"> F  </i>
   <i type="logical" name="LPARD"> F  </i>
   <i type="logical" name="LVTOT"> F  </i>
   <i type="logical" name="LVHAR"> F  </i>
   <i type="logical" name="LELF"> F  </i>
   <i type="logical" name="LOPTICS"> F  </i>
   <v name="STM">      0.00000000      0.00000000      0.00000000      0.00000000      0.00000000      0.00000000      0.00000000</v>
  </separator>
  <separator name="performance" >
   <i type="int" name="NPAR">    24</i>
   <i type="int" name="NSIM">     4</i>
   <i type="int" name="NBLK">    -1</i>
   <i type="logical" name="LPLANE"> T  </i>
   <i type="logical" name="LSCALAPACK"> T  </i>
   <i type="logical" name="LSCAAWARE"> T  </i>
   <i type="logical" name="LSCALU"> F  </i>
   <i type="logical" name="LASYNC"> F  </i>
   <i type="logical" name="LORBITALREAL"> F  </i>
  </separator>
  <separator name="miscellaneous" >
   <i type="int" name="IDIOT">     3</i>
   <i type="int" name="PHON_NSTRUCT">    -1</i>
   <i type="logical" name="LMUSIC"> F  </i>
   <v name="POMASS">    195.08000000</v>
   <v name="DARWINR">      0.00000000</v>
   <v name="DARWINV">      1.00000000</v>
   <i type="logical" name="LCORR"> T  </i>
  </separator>
  <i type="logical" name="GGA_COMPAT"> T  </i>
  <i type="logical" name="LBERRY"> F  </i>
  <i type="int" name="ICORELEVEL">     0</i>
  <i type="logical" name="LDAU"> F  </i>
  <i type="int" name="I_CONSTRAINED_M">     0</i>
  <separator name="electronic exchange-correlation" >
   <i type="string" name="GGA">--</i>
   <i type="int" name="VOSKOWN">     0</i>
   <i type="logical" name="LHFCALC"> F  </i>
   <i type="string" name="PRECFOCK"></i>
   <i type="logical" name="LSYMGRAD"> F  </i>
   <i type="logical" name="LHFONE"> F  </i>
   <i type="logical" name="LRHFCALC"> F  </i>
   <i type="logical" name="LTHOMAS"> F  </i>
   <i type="logical" name="LMODELHF"> F  </i>
   <i type="logical" name="LFOCKACE"> F  </i>
   <i name="ENCUT4O">     -1.00000000</i>
   <i type="int" name="EXXOEP">     0</i>
   <i type="int" name="FOURORBIT">     0</i>
   <i name="AEXX">      0.00000000</i>
   <i name="HFALPHA">      0.00000000</i>
   <i name="MCALPHA">      0.00000000</i>
   <i name="ALDAX">      1.00000000</i>
   <i name="AGGAX">      1.00000000</i>
   <i name="ALDAC">      1.00000000</i>
   <i name="AGGAC">      1.00000000</i>
   <i type="int" name="NKREDX">     1</i>
   <i type="int" name="NKREDY">     1</i>
   <i type="int" name="NKREDZ">     1</i>
   <i type="logical" name="SHIFTRED"> F  </i>
   <i type="logical" name="ODDONLY"> F  </i>
   <i type="logical" name="EVENONLY"> F  </i>
   <i type="int" name="LMAXFOCK">     0</i>
   <i type="int" name="NMAXFOCKAE">     0</i>
   <i type="logical" name="LFOCKAEDFT"> F  </i>
   <i name="HFSCREEN">      0.00000000</i>
   <i name="HFSCREENC">      0.00000000</i>
   <i type="int" name="NBANDSGWLOW">     0</i>
  </separator>
  <separator name="vdW DFT" >
   <i type="logical" name="LUSE_VDW"> F  </i>
   <i name="Zab_VDW">     -0.84910000</i>
   <i name="PARAM1">      0.12340000</i>
   <i name="PARAM2">      1.00000000</i>
   <i name="PARAM3">      0.00000000</i>
  </separator>
  <separator name="model GW" >
   <i type="int" name="MODEL_GW">     0</i>
   <i name="MODEL_EPS0">      9.17444760</i>
   <i name="MODEL_ALPHA">      1.00000000</i>
  </separator>
  <separator name="linear response parameters" >
   <i type="logical" name="LEPSILON"> F  </i>
   <i type="logical" name="LRPA"> F  </i>
   <i type="logical" name="LNABLA"> F  </i>
   <i type="logical" name="LVEL"> F  </i>
   <i name="CSHIFT">      0.10000000</i>
   <i name="OMEGAMAX">     -1.00000000</i>
   <i name="DEG_THRESHOLD">      0.00200000</i>
   <i name="RTIME">     -0.10000000</i>
   <i name="WPLASMAI">      0.00000000</i>
   <v name="DFIELD">      0.00000000      0.00000000      0.00000000</v>
   <v name="WPLASMA">      0.00000000      0.00000000      0.00000000      0.00000000      0.00000000      0.00000000      0.00000000      0.00000000      0.00000000</v>
  </separator>
  <separator name="orbital magnetization" >
   <i type="logical" name="NUCIND"> F  </i>
   <v name="MAGPOS">      0.00000000      0.00000000      0.00000000</v>
   <i type="logical" name="LNICSALL"> T  </i>
   <i type="logical" name="ORBITALMAG"> F  </i>
   <i type="logical" name="LMAGBLOCH"> F  </i>
   <i type="logical" name="LCHIMAG"> F  </i>
   <i type="logical" name="LGAUGE"> T  </i>
   <i type="int" name="MAGATOM">     0</i>
   <v name="MAGDIPOL">      0.00000000      0.00000000      0.00000000</v>
   <v name="AVECCONST">      0.00000000      0.00000000      0.00000000</v>
  </separator>
  <separator name="response functions" >
   <i type="logical" name="LFINITE_TEMPERATURE"> F  </i>
   <i type="logical" name="LADDER"> F  </i>
   <i type="logical" name="LRPAFORCE"> F  </i>
   <i type="logical" name="LFXC"> F  </i>
   <i type="logical" name="LHARTREE"> T  </i>
   <i type="int" name="IBSE">     0</i>
   <v type="int" name="KPOINT">    -1     0     0     0</v>
   <i type="logical" name="LTCTC"> F  </i>
   <i type="logical" name="LTCTE"> F  </i>
   <i type="logical" name="LTETE"> F  </i>
   <i type="logical" name="LTRIPLET"> F  </i>
   <i type="logical" name="LFXCEPS"> F  </i>
   <i type="logical" name="LFXHEG"> F  </i>
   <i type="int" name="NATURALO">     2</i>
   <i type="logical" name="LHOLEGF"> F  </i>
   <i type="logical" name="L2ORDER"> F  </i>
   <i type="logical" name="LDMP1"> F  </i>
   <i type="logical" name="LMP2LT"> F  </i>
   <i type="logical" name="LSMP2LT"> F  </i>
   <i type="logical" name="LGWLF"> F  </i>
   <i name="ENCUTGW">     -2.00000000</i>
   <i name="ENCUTGWSOFT">     -2.00000000</i>
   <i name="ENCUTLF">     -1.00000000</i>
   <i type="logical" name="LESF_SPLINES"> F  </i>
   <i type="int" name="LMAXMP2">    -1</i>
   <i name="SCISSOR">      0.00000000</i>
   <i type="int" name="NOMEGA">     0</i>
   <i type="int" name="NOMEGAR">     0</i>
   <i type="int" name="NBANDSGW">    -1</i>
   <i type="int" name="NBANDSO">    -1</i>
   <i type="int" name="NBANDSV">    -1</i>
   <i type="int" name="NELMGW">     1</i>
   <i type="int" name="NELMHF">     1</i>
   <i type="int" name="DIM">     3</i>
   <i type="int" name="IESPILON">     4</i>
   <i type="int" name="ANTIRES">     0</i>
   <i name="OMEGAMAX">    -30.00000000</i>
   <i name="OMEGAMIN">    -30.00000000</i>
   <i name="OMEGATL">   -200.00000000</i>
   <i type="int" name="OMEGAGRID">     0</i>
   <i name="CSHIFT">     -0.10000000</i>
   <i type="logical" name="LSELFENERGY"> F  </i>
   <i type="logical" name="LSPECTRAL"> F  </i>
   <i type="logical" name="LSPECTRALGW"> F  </i>
   <i type="logical" name="LSINGLES"> F  </i>
   <i type="logical" name="LFERMIGW"> F  </i>
   <i type="logical" name="ODDONLYGW"> F  </i>
   <i type="logical" name="EVENONLYGW"> F  </i>
   <i type="int" name="NKREDLFX">     1</i>
   <i type="int" name="NKREDLFY">     1</i>
   <i type="int" name="NKREDLFZ">     1</i>
   <i type="int" name="MAXMEM">  2800</i>
   <i type="int" name="TELESCOPE">     0</i>
   <i type="int" name="NTAUPAR">    -1</i>
   <i type="int" name="NOMEGAPAR">    -1</i>
   <i name="DAMP_NEWTON">      0.80000001</i>
   <i name="LAMBDA">      1.00000000</i>
  </separator>
  <separator name="External order field" >
   <i name="OFIELD_KAPPA">      0.00000000</i>
   <v name="OFIELD_K">      0.00000000      0.00000000      0.00000000</v>
   <i name="OFIELD_Q6_NEAR">      0.00000000</i>
   <i name="OFIELD_Q6_FAR">      0.00000000</i>
   <i name="OFIELD_A">      0.00000000</i>
  </separator>
  <separator name="optional k-points parameters" >
   <i type="int" name="KPOINTS_OPT_MODE">     1</i>
   <i type="logical" name="LKPOINTS_OPT"> F  </i>
  </separator>
 </parameters>
 <atominfo>
  <atoms>       1 </atoms>
  <types>       1 </types>
  <array name="atoms" >
   <dimension dim="1">ion</dimension>
   <field type="string">element</field>
   <field type="int">atomtype</field>
   <set>
    <rc><c>Pt</c><c>   1</c></rc>
   </set>
  </array>
  <array name="atomtypes" >
   <dimension dim="1">type</dimension>
   <field type="int">atomspertype</field>
   <field type="string">element</field>
   <field>mass</field>
   <field>valence</field>
   <field type="string">pseudopotential</field>
   <set>
    <rc><c>   1</c><c>Pt</c><c>    195.08000000</c><c>     16.00000000</c><c>  PAW_PBE Pt_pv 12Dec2005               </c></rc>
   </set>
  </array>
 </atominfo>
 <structure name="initialpos" >
  <crystal>
   <varray name="basis" >
    <v>       0.00000000       1.97000000       1.97000000 </v>
    <v>       1.97000000       0.00000000       1.97000000 </v>
    <v>       1.97000000       1.97000000       0.00000000 </v>
   </varray>
   <i name="volume">     15.29074600 </i>
   <varray name="rec_basis" >
    <v>      -0.25380711       0.25380711       0.25380711 </v>
    <v>       0.25380711      -0.25380711       0.25380711 </v>
    <v>       0.25380711       0.25380711      -0.25380711 </v>
   </varray>
  </crystal>
  <varray name="positions" >
   <v>       0.00000000       0.00000000       0.00000000 </v>
  </varray>
 </structure>
 <calculation>
  <scstep>
   <time name="dav">    0.14    0.14</time>
   <time name="total">    0.14    0.15</time>
   <energy>
    <i name="alphaZ">    156.91311333 </i>
    <i name="ewald">  -2144.84590610 </i>
    <i name="hartreedc">   -397.82488157 </i>
    <i name="XCdc">     63.81680431 </i>
    <i name="pawpsdc">   2065.75261637 </i>
    <i name="pawaedc">  -2030.83594803 </i>
    <i name="eentropy">     -0.00313259 </i>
    <i name="bandstr">   -126.39878346 </i>
    <i name="atom">   2428.19501064 </i>
    <i name="e_fr_energy">     14.76889291 </i>
    <i name="e_wo_entrp">     14.77202550 </i>
    <i name="e_0_energy">     14.77045921 </i>
   </energy>
  </scstep>
  <scstep>
   <time name="dav">    0.17    0.17</time>
   <time name="total">    0.17    0.17</time>
   <energy>
    <i name="e_fr_energy">     -6.40739633 </i>
    <i name="e_wo_entrp">     -6.40586958 </i>
    <i name="e_0_energy">     -6.40663295 </i>
   </energy>
  </scstep>
  <scstep>
   <time name="dav">    0.19    0.19</time>
   <time name="total">    0.19    0.19</time>
   <energy>
    <i name="e_fr_energy">     -6.43922399 </i>
    <i name="e_wo_entrp">     -6.43769288 </i>
    <i name="e_0_energy">     -6.43845843 </i>
   </energy>
  </scstep>
  <scstep>
   <time name="dav">    0.24    0.24</time>
   <time name="total">    0.24    0.24</time>
   <energy>
    <i name="e_fr_energy">     -6.43924748 </i>
    <i name="e_wo_entrp">     -6.43771637 </i>
    <i name="e_0_energy">     -6.43848192 </i>
   </energy>
  </scstep>
  <scstep>
   <time name="dav">    0.19    0.19</time>
   <time name="total">    0.20    0.20</time>
   <energy>
    <i name="e_fr_energy">     -6.43924748 </i>
    <i name="e_wo_entrp">     -6.43771637 </i>
    <i name="e_0_energy">     -6.43848192 </i>
   </energy>
  </scstep>
  <scstep>
   <time name="dav">    0.13    0.13</time>
   <time name="total">    0.14    0.14</time>
   <energy>
    <i name="e_fr_energy">     -6.11352103 </i>
    <i name="e_wo_entrp">     -6.11196805 </i>
    <i name="e_0_energy">     -6.11274454 </i>
   </energy>
  </scstep>
  <scstep>
   <time name="dav">    0.20    0.20</time>
   <time name="total">    0.21    0.21</time>
   <energy>
    <i name="e_fr_energy">     -6.09445400 </i>
    <i name="e_wo_entrp">     -6.09288980 </i>
    <i name="e_0_energy">     -6.09367190 </i>
   </energy>
  </scstep>
  <scstep>
   <time name="dav">    0.14    0.14</time>
   <time name="total">    0.15    0.15</time>
   <energy>
    <i name="e_fr_energy">     -6.09293852 </i>
    <i name="e_wo_entrp">     -6.09138517 </i>
    <i name="e_0_energy">     -6.09216185 </i>
   </energy>
  </scstep>
  <scstep>
   <time name="dav">    0.20    0.20</time>
   <time name="total">    0.21    0.21</time>
   <energy>
    <i name="e_fr_energy">     -6.09287409 </i>
    <i name="e_wo_entrp">     -6.09131937 </i>
    <i name="e_0_energy">     -6.09209673 </i>
   </energy>
  </scstep>
  <scstep>
   <time name="dav">    0.19    0.19</time>
   <time name="total">    0.20    0.20</time>
   <energy>
    <i name="e_fr_energy">     -6.09287960 </i>
    <i name="e_wo_entrp">     -6.09132446 </i>
    <i name="e_0_energy">     -6.09210203 </i>
   </energy>
  </scstep>
  <scstep>
   <time name="dav">    0.06    0.06</time>
   <time name="total">    0.06    0.06</time>
   <energy>
    <i name="alphaZ">    156.91311333 </i>
    <i name="ewald">  -2144.84590610 </i>
    <i name="hartreedc">   -378.62580452 </i>
    <i name="XCdc">     62.96625684 </i>
    <i name="pawpsdc">   2352.52272986 </i>
    <i name="pawaedc">  -2320.22437020 </i>
    <i name="eentropy">     -0.00155514 </i>
    <i name="bandstr">   -162.99235427 </i>
    <i name="atom">   2428.19501064 </i>
    <i name="e_fr_energy">     -6.09287955 </i>
    <i name="e_wo_entrp">     -6.09132441 </i>
    <i name="e_0_energy">     -6.09210198 </i>
   </energy>
  </scstep>
  <structure>
   <crystal>
    <varray name="basis" >
     <v>       0.00000000       1.97000000       1.97000000 </v>
     <v>       1.97000000       0.00000000       1.97000000 </v>
     <v>       1.97000000       1.97000000       0.00000000 </v>
    </varray>
    <i name="volume">     15.29074600 </i>
    <varray name="rec_basis" >
     <v>      -0.25380711       0.25380711       0.25380711 </v>
     <v>       0.25380711      -0.25380711       0.25380711 </v>
     <v>       0.25380711       0.25380711      -0.25380711 </v>
    </varray>
   </crystal>
   <varray name="positions" >
    <v>       0.00000000       0.00000000       0.00000000 </v>
   </varray>
  </structure>
  <varray name="forces" >
   <v>      -0.00000000      -0.00000000      -0.00000000 </v>
  </varray>
  <varray name="stress" >
   <v>      34.06290092      -0.00000000      -0.00000000 </v>
   <v>       0.00000000      34.06290092      -0.00000000 </v>
   <v>      -0.00000000      -0.00000000      34.06290092 </v>
  </varray>
  <energy>
   <i name="e_fr_energy">     -6.09287955 </i>
   <i name="e_wo_entrp">     -6.09132441 </i>
   <i name="e_0_energy">     -6.09210198 </i>
  </energy>
  <time name="totalsc">    1.99    2.00</time>
  <eigenvalues>
   <array>
    <dimension dim="1">band</dimension>
    <dimension dim="2">kpoint</dimension>
    <dimension dim="3">spin</dimension>
    <field>eigene</field>
    <field>occ</field>
    <set>
     <set comment="spin 1">
      <set comment="kpoint 1">
       <r>  -40.7237    1.0000 </r>
       <r>  -40.6979    1.0000 </r>
       <r>  -40.6979    1.0000 </r>
       <r>    1.9720    1.0000 </r>
       <r>    7.9657    1.0000 </r>
       <r>    8.1890    1.0000 </r>
       <r>    8.1890    1.0000 </r>
       <r>   10.1426    1.0000 </r>
       <r>   10.1426    1.0000 </r>
       <r>   26.8574    0.0000 </r>
       <r>   30.0031    0.0000 </r>
       <r>   31.7391    0.0000 </r>
       <r>   31.7391    0.0000 </r>
       <r>   37.9665    0.0000 </r>
       <r>   40.8603    0.0000 </r>
       <r>   41.9436    0.0000 </r>
       <r>   41.9436    0.0000 </r>
       <r>   46.2465    0.0000 </r>
       <r>   46.2465    0.0000 </r>
       <r>   47.9437    0.0000 </r>
       <r>   52.5143    0.0000 </r>
       <r>   52.8272    0.0000 </r>
       <r>   52.8272    0.0000 </r>
       <r>   60.3257    0.0000 </r>
      </set>
      <set comment="kpoint 2">
       <r>  -40.8509    1.0000 </r>
       <r>  -40.7389    1.0000 </r>
       <r>  -40.7102    1.0000 </r>
       <r>    3.2928    1.0000 </r>
       <r>    7.5118    1.0000 </r>
       <r>    8.5067    1.0000 </r>
       <r>    8.6029    1.0000 </r>
       <r>    9.7209    1.0000 </r>
       <r>   10.5734    1.0000 </r>
       <r>   26.8895    0.0000 </r>
       <r>   28.3236    0.0000 </r>
       <r>   31.7229    0.0000 </r>
       <r>   34.2586    0.0000 </r>
       <r>   34.6173    0.0000 </r>
       <r>   38.9285    0.0000 </r>
       <r>   39.3560    0.0000 </r>
       <r>   43.3087    0.0000 </r>
       <r>   43.8740    0.0000 </r>
       <r>   47.8398    0.0000 </r>
       <r>   50.0804    0.0000 </r>
       <r>   52.5195    0.0000 </r>
       <r>   53.2503    0.0000 </r>
       <r>   55.0821    0.0000 </r>
       <r>   61.3959    0.0000 </r>
      </set>
      <set comment="kpoint 3">
       <r>  -41.0558    1.0000 </r>
       <r>  -40.7744    1.0000 </r>
       <r>  -40.7439    1.0000 </r>
       <r>    4.7464    1.0000 </r>
       <r>    8.0835    1.0000 </r>
       <r>    8.3562    1.0000 </r>
       <r>    8.6600    1.0000 </r>
       <r>   10.8305    1.0000 </r>
       <r>   12.0361    0.0000 </r>
       <r>   21.0621    0.0000 </r>
       <r>   27.1294    0.0000 </r>
       <r>   30.3571    0.0000 </r>
       <r>   33.1450    0.0000 </r>
       <r>   36.1746    0.0000 </r>
       <r>   38.7739    0.0000 </r>
       <r>   39.6223    0.0000 </r>
       <r>   44.5839    0.0000 </r>
       <r>   47.3914    0.0000 </r>
       <r>   50.1706    0.0000 </r>
       <r>   51.4373    0.0000 </r>
       <r>   52.5297    0.0000 </r>
       <r>   54.3768    0.0000 </r>
       <r>   56.1778    0.0000 </r>
       <r>   58.0914    0.0000 </r>
      </set>
      <set comment="kpoint 4">
       <r>  -41.1272    1.0000 </r>
       <r>  -40.7766    1.0000 </r>
       <r>  -40.7651    1.0000 </r>
       <r>    4.8105    1.0000 </r>
       <r>    7.8494    1.0000 </r>
       <r>    8.2170    1.0000 </r>
       <r>   10.0223    1.0000 </r>
       <r>   11.8535    0.0500 </r>
       <r>   13.1106    0.0000 </r>
       <r>   17.6538    0.0000 </r>
       <r>   26.4059    0.0000 </r>
       <r>   30.1787    0.0000 </r>
       <r>   30.2813    0.0000 </r>
       <r>   39.3409    0.0000 </r>
       <r>   39.8609    0.0000 </r>
       <r>   41.5727    0.0000 </r>
       <r>   45.2175    0.0000 </r>
       <r>   47.5337    0.0000 </r>
       <r>   47.9555    0.0000 </r>
       <r>   52.5292    0.0000 </r>
       <r>   52.9727    0.0000 </r>
       <r>   54.3842    0.0000 </r>
       <r>   56.8318    0.0000 </r>
       <r>   58.3413    0.0000 </r>
      </set>
      <set comment="kpoint 5">
       <r>  -40.9939    1.0000 </r>
       <r>  -40.7518    1.0000 </r>
       <r>  -40.7446    1.0000 </r>
       <r>    4.4787    1.0000 </r>
       <r>    7.8015    1.0000 </r>
       <r>    8.2359    1.0000 </r>
       <r>    8.5495    1.0000 </r>
       <r>   10.7335    1.0000 </r>
       <r>   11.1619    1.0000 </r>
       <r>   23.1511    0.0000 </r>
       <r>   27.8384    0.0000 </r>
       <r>   31.5734    0.0000 </r>
       <r>   33.1328    0.0000 </r>
       <r>   36.6745    0.0000 </r>
       <r>   36.9837    0.0000 </r>
       <r>   38.2682    0.0000 </r>
       <r>   43.4875    0.0000 </r>
       <r>   48.9525    0.0000 </r>
       <r>   49.3909    0.0000 </r>
       <r>   50.9137    0.0000 </r>
       <r>   51.7473    0.0000 </r>
       <r>   52.5343    0.0000 </r>
       <r>   57.0597    0.0000 </r>
       <r>   59.3537    0.0000 </r>
      </set>
      <set comment="kpoint 6">
       <r>  -40.7846    1.0000 </r>
       <r>  -40.7185    1.0000 </r>
       <r>  -40.7129    1.0000 </r>
       <r>    2.6731    1.0000 </r>
       <r>    7.5870    1.0000 </r>
       <r>    8.4938    1.0000 </r>
       <r>    8.5091    1.0000 </r>
       <r>    9.7165    1.0000 </r>
       <r>   10.3815    1.0000 </r>
       <r>   27.8331    0.0000 </r>
       <r>   28.6516    0.0000 </r>
       <r>   31.6429    0.0000 </r>
       <r>   32.3256    0.0000 </r>
       <r>   37.4087    0.0000 </r>
       <r>   38.8437    0.0000 </r>
       <r>   41.0068    0.0000 </r>
       <r>   41.8453    0.0000 </r>
       <r>   43.3389    0.0000 </r>
       <r>   49.0691    0.0000 </r>
       <r>   50.0579    0.0000 </r>
       <r>   50.6617    0.0000 </r>
       <r>   52.5195    0.0000 </r>
       <r>   54.9027    0.0000 </r>
       <r>   61.5092    0.0000 </r>
      </set>
      <set comment="kpoint 7">
       <r>  -40.8752    1.0000 </r>
       <r>  -40.7553    1.0000 </r>
       <r>  -40.7522    1.0000 </r>
       <r>    3.9073    1.0000 </r>
       <r>    6.9414    1.0000 </r>
       <r>    8.6695    1.0000 </r>
       <r>    9.1282    1.0000 </r>
       <r>    9.6482    1.0000 </r>
       <r>   10.8086    1.0000 </r>
       <r>   27.5947    0.0000 </r>
       <r>   29.3815    0.0000 </r>
       <r>   30.2684    0.0000 </r>
       <r>   31.2442    0.0000 </r>
       <r>   35.3106    0.0000 </r>
       <r>   37.9165    0.0000 </r>
       <r>   38.5602    0.0000 </r>
       <r>   43.7246    0.0000 </r>
       <r>   46.2265    0.0000 </r>
       <r>   46.7100    0.0000 </r>
       <r>   51.4710    0.0000 </r>
       <r>   52.4222    0.0000 </r>
       <r>   52.5245    0.0000 </r>
       <r>   55.7185    0.0000 </r>
       <r>   63.0738    0.0000 </r>
      </set>
      <set comment="kpoint 8">
       <r>  -41.0037    1.0000 </r>
       <r>  -40.8262    1.0000 </r>
       <r>  -40.7798    1.0000 </r>
       <r>    5.4579    1.0000 </r>
       <r>    6.6708    1.0000 </r>
       <r>    7.9311    1.0000 </r>
       <r>    9.6894    1.0000 </r>
       <r>   10.7904    1.0000 </r>
       <r>   12.3246    0.0000 </r>
       <r>   23.5379    0.0000 </r>
       <r>   27.0296    0.0000 </r>
       <r>   28.3997    0.0000 </r>
       <r>   32.1174    0.0000 </r>
       <r>   35.2156    0.0000 </r>
       <r>   38.6312    0.0000 </r>
       <r>   40.5357    0.0000 </r>
       <r>   43.5918    0.0000 </r>
       <r>   45.9568    0.0000 </r>
       <r>   49.2857    0.0000 </r>
       <r>   52.5217    0.0000 </r>
       <r>   52.8619    0.0000 </r>
       <r>   53.7718    0.0000 </r>
       <r>   56.6718    0.0000 </r>
       <r>   60.8672    0.0000 </r>
      </set>
      <set comment="kpoint 9">
       <r>  -41.0782    1.0000 </r>
       <r>  -40.8752    1.0000 </r>
       <r>  -40.7978    1.0000 </r>
       <r>    5.8159    1.0000 </r>
       <r>    7.0975    1.0000 </r>
       <r>    8.3265    1.0000 </r>
       <r>    9.2451    1.0000 </r>
       <r>   11.6865    0.9990 </r>
       <r>   15.9069    0.0000 </r>
       <r>   17.5336    0.0000 </r>
       <r>   26.1245    0.0000 </r>
       <r>   27.1550    0.0000 </r>
       <r>   30.6642    0.0000 </r>
       <r>   37.9404    0.0000 </r>
       <r>   40.4273    0.0000 </r>
       <r>   42.2422    0.0000 </r>
       <r>   44.3132    0.0000 </r>
       <r>   47.0323    0.0000 </r>
       <r>   50.3173    0.0000 </r>
       <r>   50.9337    0.0000 </r>
       <r>   52.5286    0.0000 </r>
       <r>   53.5063    0.0000 </r>
       <r>   57.1975    0.0000 </r>
       <r>   58.6124    0.0000 </r>
      </set>
      <set comment="kpoint 10">
       <r>  -41.0308    1.0000 </r>
       <r>  -40.8702    1.0000 </r>
       <r>  -40.7692    1.0000 </r>
       <r>    5.9477    1.0000 </r>
       <r>    7.3702    1.0000 </r>
       <r>    7.4524    1.0000 </r>
       <r>    9.3786    1.0000 </r>
       <r>   10.5860    1.0000 </r>
       <r>   13.6451    0.0000 </r>
       <r>   21.6360    0.0000 </r>
       <r>   25.4286    0.0000 </r>
       <r>   28.5942    0.0000 </r>
       <r>   32.7339    0.0000 </r>
       <r>   34.9992    0.0000 </r>
       <r>   39.9222    0.0000 </r>
       <r>   42.1760    0.0000 </r>
       <r>   43.7214    0.0000 </r>
       <r>   46.7400    0.0000 </r>
       <r>   48.8253    0.0000 </r>
       <r>   51.5064    0.0000 </r>
       <r>   52.5259    0.0000 </r>
       <r>   55.8277    0.0000 </r>
       <r>   56.4955    0.0000 </r>
       <r>   57.9819    0.0000 </r>
      </set>
      <set comment="kpoint 11">
       <r>  -40.9312    1.0000 </r>
       <r>  -40.7782    1.0000 </r>
       <r>  -40.7349    1.0000 </r>
       <r>    4.3818    1.0000 </r>
       <r>    7.1447    1.0000 </r>
       <r>    8.3086    1.0000 </r>
       <r>    9.0110    1.0000 </r>
       <r>    9.8596    1.0000 </r>
       <r>   11.3099    1.0000 </r>
       <r>   25.3779    0.0000 </r>
       <r>   28.4510    0.0000 </r>
       <r>   30.5965    0.0000 </r>
       <r>   32.0721    0.0000 </r>
       <r>   36.7586    0.0000 </r>
       <r>   37.2226    0.0000 </r>
       <r>   39.6068    0.0000 </r>
       <r>   42.0760    0.0000 </r>
       <r>   46.9275    0.0000 </r>
       <r>   48.3969    0.0000 </r>
       <r>   49.4288    0.0000 </r>
       <r>   52.5222    0.0000 </r>
       <r>   54.5804    0.0000 </r>
       <r>   57.1969    0.0000 </r>
       <r>   59.8487    0.0000 </r>
      </set>
      <set comment="kpoint 12">
       <r>  -41.0571    1.0000 </r>
       <r>  -40.8463    1.0000 </r>
       <r>  -40.8347    1.0000 </r>
       <r>    5.2207    1.0000 </r>
       <r>    5.7480    1.0000 </r>
       <r>    9.8671    1.0000 </r>
       <r>   10.8954    1.0000 </r>
       <r>   11.8207    0.2366 </r>
       <r>   12.3494    0.0000 </r>
       <r>   23.2746    0.0000 </r>
       <r>   25.2482    0.0000 </r>
       <r>   25.4164    0.0000 </r>
       <r>   31.5600    0.0000 </r>
       <r>   33.8295    0.0000 </r>
       <r>   40.5264    0.0000 </r>
       <r>   42.5390    0.0000 </r>
       <r>   43.8837    0.0000 </r>
       <r>   47.1992    0.0000 </r>
       <r>   48.1548    0.0000 </r>
       <r>   52.5157    0.0000 </r>
       <r>   54.5097    0.0000 </r>
       <r>   55.0210    0.0000 </r>
       <r>   57.0329    0.0000 </r>
       <r>   57.6841    0.0000 </r>
      </set>
      <set comment="kpoint 13">
       <r>  -41.0730    1.0000 </r>
       <r>  -40.9065    1.0000 </r>
       <r>  -40.8508    1.0000 </r>
       <r>    5.4726    1.0000 </r>
       <r>    5.9408    1.0000 </r>
       <r>    9.4693    1.0000 </r>
       <r>   10.9082    1.0000 </r>
       <r>   12.0777    0.0000 </r>
       <r>   16.2222    0.0000 </r>
       <r>   19.5327    0.0000 </r>
       <r>   22.6570    0.0000 </r>
       <r>   24.3624    0.0000 </r>
       <r>   33.2719    0.0000 </r>
       <r>   35.7143    0.0000 </r>
       <r>   39.0863    0.0000 </r>
       <r>   43.4653    0.0000 </r>
       <r>   46.5752    0.0000 </r>
       <r>   47.2786    0.0000 </r>
       <r>   49.5994    0.0000 </r>
       <r>   51.5769    0.0000 </r>
       <r>   52.5322    0.0000 </r>
       <r>   53.6296    0.0000 </r>
       <r>   55.7961    0.0000 </r>
       <r>   57.2699    0.0000 </r>
      </set>
      <set comment="kpoint 14">
       <r>  -41.0300    1.0000 </r>
       <r>  -40.9546    1.0000 </r>
       <r>  -40.8131    1.0000 </r>
       <r>    6.2032    1.0000 </r>
       <r>    6.9236    1.0000 </r>
       <r>    7.9888    1.0000 </r>
       <r>    9.8175    1.0000 </r>
       <r>   11.4493    1.0000 </r>
       <r>   16.4483    0.0000 </r>
       <r>   19.1361    0.0000 </r>
       <r>   22.7543    0.0000 </r>
       <r>   27.0416    0.0000 </r>
       <r>   31.7427    0.0000 </r>
       <r>   37.2909    0.0000 </r>
       <r>   40.4386    0.0000 </r>
       <r>   41.1459    0.0000 </r>
       <r>   45.5154    0.0000 </r>
       <r>   47.4607    0.0000 </r>
       <r>   51.6125    0.0000 </r>
       <r>   52.3702    0.0000 </r>
       <r>   52.4889    0.0000 </r>
       <r>   52.5363    0.0000 </r>
       <r>   54.7091    0.0000 </r>
       <r>   58.9682    0.0000 </r>
      </set>
      <set comment="kpoint 15">
       <r>  -41.0879    1.0000 </r>
       <r>  -40.8131    1.0000 </r>
       <r>  -40.7687    1.0000 </r>
       <r>    5.2180    1.0000 </r>
       <r>    7.6377    1.0000 </r>
       <r>    8.5499    1.0000 </r>
       <r>    8.7848    1.0000 </r>
       <r>   11.4682    1.0000 </r>
       <r>   13.4656    0.0000 </r>
       <r>   19.1624    0.0000 </r>
       <r>   27.0897    0.0000 </r>
       <r>   28.5758    0.0000 </r>
       <r>   31.1939    0.0000 </r>
       <r>   37.5988    0.0000 </r>
       <r>   39.9534    0.0000 </r>
       <r>   41.9364    0.0000 </r>
       <r>   43.3031    0.0000 </r>
       <r>   48.8437    0.0000 </r>
       <r>   49.3512    0.0000 </r>
       <r>   50.0637    0.0000 </r>
       <r>   52.5257    0.0000 </r>
       <r>   54.9592    0.0000 </r>
       <r>   56.8583    0.0000 </r>
       <r>   58.2772    0.0000 </r>
      </set>
      <set comment="kpoint 16">
       <r>  -41.1019    1.0000 </r>
       <r>  -40.8723    1.0000 </r>
       <r>  -40.8556    1.0000 </r>
       <r>    5.0167    1.0000 </r>
       <r>    5.4608    1.0000 </r>
       <r>   11.1130    1.0000 </r>
       <r>   11.5213    1.0000 </r>
       <r>   12.1530    0.0000 </r>
       <r>   14.2968    0.0000 </r>
       <r>   20.6317    0.0000 </r>
       <r>   23.1583    0.0000 </r>
       <r>   23.7610    0.0000 </r>
       <r>   32.1341    0.0000 </r>
       <r>   34.7831    0.0000 </r>
       <r>   40.0861    0.0000 </r>
       <r>   44.8144    0.0000 </r>
       <r>   46.7705    0.0000 </r>
       <r>   47.2327    0.0000 </r>
       <r>   49.4038    0.0000 </r>
       <r>   52.5220    0.0000 </r>
       <r>   52.6974    0.0000 </r>
       <r>   53.4361    0.0000 </r>
       <r>   54.0282    0.0000 </r>
       <r>   55.6660    0.0000 </r>
      </set>
      <set comment="kpoint 17">
       <r>  -41.0515    1.0000 </r>
       <r>  -40.8738    1.0000 </r>
       <r>  -40.8248    1.0000 </r>
       <r>    5.6699    1.0000 </r>
       <r>    6.2148    1.0000 </r>
       <r>    8.5272    1.0000 </r>
       <r>   10.5051    1.0000 </r>
       <r>   11.6431    1.0000 </r>
       <r>   13.9724    0.0000 </r>
       <r>   21.4016    0.0000 </r>
       <r>   24.8200    0.0000 </r>
       <r>   25.9901    0.0000 </r>
       <r>   32.4935    0.0000 </r>
       <r>   35.2319    0.0000 </r>
       <r>   39.3930    0.0000 </r>
       <r>   42.3946    0.0000 </r>
       <r>   44.7539    0.0000 </r>
       <r>   47.1571    0.0000 </r>
       <r>   48.5916    0.0000 </r>
       <r>   51.4605    0.0000 </r>
       <r>   52.5291    0.0000 </r>
       <r>   55.1230    0.0000 </r>
       <r>   58.1113    0.0000 </r>
       <r>   59.4670    0.0000 </r>
      </set>
      <set comment="kpoint 18">
       <r>  -40.9746    1.0000 </r>
       <r>  -40.8022    1.0000 </r>
       <r>  -40.7980    1.0000 </r>
       <r>    5.0528    1.0000 </r>
       <r>    6.2743    1.0000 </r>
       <r>    8.6581    1.0000 </r>
       <r>    9.9807    1.0000 </r>
       <r>   10.7220    1.0000 </r>
       <r>   11.3296    1.0000 </r>
       <r>   25.9078    0.0000 </r>
       <r>   27.6853    0.0000 </r>
       <r>   28.5576    0.0000 </r>
       <r>   31.3827    0.0000 </r>
       <r>   32.7445    0.0000 </r>
       <r>   39.2764    0.0000 </r>
       <r>   39.8822    0.0000 </r>
       <r>   44.2213    0.0000 </r>
       <r>   45.1147    0.0000 </r>
       <r>   49.5205    0.0000 </r>
       <r>   52.5157    0.0000 </r>
       <r>   53.5016    0.0000 </r>
       <r>   54.0204    0.0000 </r>
       <r>   54.9015    0.0000 </r>
       <r>   61.9067    0.0000 </r>
      </set>
      <set comment="kpoint 19">
       <r>  -40.9190    1.0000 </r>
       <r>  -40.7256    1.0000 </r>
       <r>  -40.7256    1.0000 </r>
       <r>    3.7315    1.0000 </r>
       <r>    7.7398    1.0000 </r>
       <r>    8.4507    1.0000 </r>
       <r>    8.4507    1.0000 </r>
       <r>   10.3751    1.0000 </r>
       <r>   10.3751    1.0000 </r>
       <r>   25.0042    0.0000 </r>
       <r>   28.1164    0.0000 </r>
       <r>   34.2448    0.0000 </r>
       <r>   34.2448    0.0000 </r>
       <r>   35.1686    0.0000 </r>
       <r>   36.5435    0.0000 </r>
       <r>   36.5435    0.0000 </r>
       <r>   45.8975    0.0000 </r>
       <r>   46.8932    0.0000 </r>
       <r>   46.8932    0.0000 </r>
       <r>   50.6619    0.0000 </r>
       <r>   52.5242    0.0000 </r>
       <r>   53.5243    0.0000 </r>
       <r>   53.5243    0.0000 </r>
       <r>   61.1077    0.0000 </r>
      </set>
      <set comment="kpoint 20">
       <r>  -40.9913    1.0000 </r>
       <r>  -40.8202    1.0000 </r>
       <r>  -40.7380    1.0000 </r>
       <r>    5.1541    1.0000 </r>
       <r>    7.3535    1.0000 </r>
       <r>    8.0640    1.0000 </r>
       <r>    8.9579    1.0000 </r>
       <r>    9.8918    1.0000 </r>
       <r>   12.3827    0.0000 </r>
       <r>   23.4035    0.0000 </r>
       <r>   27.1402    0.0000 </r>
       <r>   29.5787    0.0000 </r>
       <r>   33.3304    0.0000 </r>
       <r>   34.8904    0.0000 </r>
       <r>   39.3394    0.0000 </r>
       <r>   41.6861    0.0000 </r>
       <r>   41.7558    0.0000 </r>
       <r>   46.1891    0.0000 </r>
       <r>   47.7438    0.0000 </r>
       <r>   52.5248    0.0000 </r>
       <r>   52.9254    0.0000 </r>
       <r>   55.5642    0.0000 </r>
       <r>   56.6772    0.0000 </r>
       <r>   58.1863    0.0000 </r>
      </set>
      <set comment="kpoint 21">
       <r>  -41.0390    1.0000 </r>
       <r>  -40.9192    1.0000 </r>
       <r>  -40.7804    1.0000 </r>
       <r>    6.1463    1.0000 </r>
       <r>    7.2592    1.0000 </r>
       <r>    7.9125    1.0000 </r>
       <r>    9.3582    1.0000 </r>
       <r>   10.8294    1.0000 </r>
       <r>   14.8656    0.0000 </r>
       <r>   20.3004    0.0000 </r>
       <r>   23.8106    0.0000 </r>
       <r>   29.4891    0.0000 </r>
       <r>   30.5320    0.0000 </r>
       <r>   36.5365    0.0000 </r>
       <r>   39.0830    0.0000 </r>
       <r>   42.7444    0.0000 </r>
       <r>   46.9130    0.0000 </r>
       <r>   48.0015    0.0000 </r>
       <r>   49.0578    0.0000 </r>
       <r>   50.2176    0.0000 </r>
       <r>   52.5321    0.0000 </r>
       <r>   53.0215    0.0000 </r>
       <r>   55.8876    0.0000 </r>
       <r>   58.7431    0.0000 </r>
      </set>
      <set comment="kpoint 22">
       <r>  -41.0657    1.0000 </r>
       <r>  -40.8749    1.0000 </r>
       <r>  -40.8108    1.0000 </r>
       <r>    5.6558    1.0000 </r>
       <r>    6.7981    1.0000 </r>
       <r>    8.3324    1.0000 </r>
       <r>    9.6467    1.0000 </r>
       <r>   11.9630    0.0000 </r>
       <r>   14.7994    0.0000 </r>
       <r>   19.1157    0.0000 </r>
       <r>   25.7526    0.0000 </r>
       <r>   27.2822    0.0000 </r>
       <r>   30.5173    0.0000 </r>
       <r>   38.3112    0.0000 </r>
       <r>   39.0633    0.0000 </r>
       <r>   41.1326    0.0000 </r>
       <r>   44.9071    0.0000 </r>
       <r>   47.7528    0.0000 </r>
       <r>   48.4263    0.0000 </r>
       <r>   52.5233    0.0000 </r>
       <r>   52.8182    0.0000 </r>
       <r>   54.4299    0.0000 </r>
       <r>   56.9643    0.0000 </r>
       <r>   60.4571    0.0000 </r>
      </set>
      <set comment="kpoint 23">
       <r>  -41.0482    1.0000 </r>
       <r>  -40.7998    1.0000 </r>
       <r>  -40.7835    1.0000 </r>
       <r>    5.2545    1.0000 </r>
       <r>    7.4337    1.0000 </r>
       <r>    7.9537    1.0000 </r>
       <r>    8.9683    1.0000 </r>
       <r>   11.7732    0.7338 </r>
       <r>   12.3276    0.0000 </r>
       <r>   21.1373    0.0000 </r>
       <r>   27.6892    0.0000 </r>
       <r>   29.0104    0.0000 </r>
       <r>   30.8244    0.0000 </r>
       <r>   38.2274    0.0000 </r>
       <r>   38.4555    0.0000 </r>
       <r>   40.2642    0.0000 </r>
       <r>   42.2929    0.0000 </r>
       <r>   48.0560    0.0000 </r>
       <r>   49.9353    0.0000 </r>
       <r>   52.2176    0.0000 </r>
       <r>   52.5248    0.0000 </r>
       <r>   54.4001    0.0000 </r>
       <r>   55.8287    0.0000 </r>
       <r>   58.8079    0.0000 </r>
      </set>
      <set comment="kpoint 24">
       <r>  -41.0395    1.0000 </r>
       <r>  -40.9182    1.0000 </r>
       <r>  -40.8150    1.0000 </r>
       <r>    6.4007    1.0000 </r>
       <r>    6.8400    1.0000 </r>
       <r>    7.4865    1.0000 </r>
       <r>    9.9698    1.0000 </r>
       <r>   11.4279    1.0000 </r>
       <r>   15.4100    0.0000 </r>
       <r>   20.1284    0.0000 </r>
       <r>   23.7140    0.0000 </r>
       <r>   26.3957    0.0000 </r>
       <r>   32.9389    0.0000 </r>
       <r>   35.9151    0.0000 </r>
       <r>   41.3213    0.0000 </r>
       <r>   41.5351    0.0000 </r>
       <r>   43.7565    0.0000 </r>
       <r>   47.5341    0.0000 </r>
       <r>   49.6755    0.0000 </r>
       <r>   51.2132    0.0000 </r>
       <r>   52.5323    0.0000 </r>
       <r>   53.9123    0.0000 </r>
       <r>   57.1328    0.0000 </r>
       <r>   59.0025    0.0000 </r>
      </set>
      <set comment="kpoint 25">
       <r>  -41.0248    1.0000 </r>
       <r>  -40.9571    1.0000 </r>
       <r>  -40.8503    1.0000 </r>
       <r>    6.1806    1.0000 </r>
       <r>    6.7452    1.0000 </r>
       <r>    7.9315    1.0000 </r>
       <r>   10.0516    1.0000 </r>
       <r>   12.0466    0.0000 </r>
       <r>   17.7410    0.0000 </r>
       <r>   19.1636    0.0000 </r>
       <r>   21.8037    0.0000 </r>
       <r>   24.4349    0.0000 </r>
       <r>   34.3682    0.0000 </r>
       <r>   36.6395    0.0000 </r>
       <r>   39.2423    0.0000 </r>
       <r>   43.4480    0.0000 </r>
       <r>   44.0286    0.0000 </r>
       <r>   45.9314    0.0000 </r>
       <r>   49.5295    0.0000 </r>
       <r>   52.5307    0.0000 </r>
       <r>   53.1054    0.0000 </r>
       <r>   54.5598    0.0000 </r>
       <r>   57.7856    0.0000 </r>
       <r>   58.7569    0.0000 </r>
      </set>
      <set comment="kpoint 26">
       <r>  -41.0505    1.0000 </r>
       <r>  -40.9421    1.0000 </r>
       <r>  -40.8259    1.0000 </r>
       <r>    5.6649    1.0000 </r>
       <r>    6.4710    1.0000 </r>
       <r>    8.8994    1.0000 </r>
       <r>   10.3590    1.0000 </r>
       <r>   11.7214    0.9817 </r>
       <r>   17.4412    0.0000 </r>
       <r>   17.9208    0.0000 </r>
       <r>   22.5946    0.0000 </r>
       <r>   26.4671    0.0000 </r>
       <r>   31.4589    0.0000 </r>
       <r>   38.1884    0.0000 </r>
       <r>   39.1676    0.0000 </r>
       <r>   40.6340    0.0000 </r>
       <r>   47.9538    0.0000 </r>
       <r>   48.3929    0.0000 </r>
       <r>   48.9564    0.0000 </r>
       <r>   52.3300    0.0000 </r>
       <r>   52.5343    0.0000 </r>
       <r>   53.1510    0.0000 </r>
       <r>   56.5295    0.0000 </r>
       <r>   57.6880    0.0000 </r>
      </set>
      <set comment="kpoint 27">
       <r>  -41.1103    1.0000 </r>
       <r>  -40.7535    1.0000 </r>
       <r>  -40.7535    1.0000 </r>
       <r>    4.5842    1.0000 </r>
       <r>    8.0943    1.0000 </r>
       <r>    8.0943    1.0000 </r>
       <r>   10.2503    1.0000 </r>
       <r>   11.5895    1.0000 </r>
       <r>   11.5895    1.0000 </r>
       <r>   19.0504    0.0000 </r>
       <r>   26.3100    0.0000 </r>
       <r>   31.2981    0.0000 </r>
       <r>   31.2981    0.0000 </r>
       <r>   39.0179    0.0000 </r>
       <r>   39.0179    0.0000 </r>
       <r>   39.4361    0.0000 </r>
       <r>   46.9123    0.0000 </r>
       <r>   46.9123    0.0000 </r>
       <r>   48.0878    0.0000 </r>
       <r>   52.5335    0.0000 </r>
       <r>   54.9125    0.0000 </r>
       <r>   54.9125    0.0000 </r>
       <r>   55.8126    0.0000 </r>
       <r>   58.0845    0.0000 </r>
      </set>
      <set comment="kpoint 28">
       <r>  -41.0989    1.0000 </r>
       <r>  -40.8391    1.0000 </r>
       <r>  -40.7748    1.0000 </r>
       <r>    5.4007    1.0000 </r>
       <r>    7.4595    1.0000 </r>
       <r>    8.6942    1.0000 </r>
       <r>    8.9814    1.0000 </r>
       <r>   11.5093    1.0000 </r>
       <r>   14.7969    0.0000 </r>
       <r>   17.7217    0.0000 </r>
       <r>   26.5201    0.0000 </r>
       <r>   28.6229    0.0000 </r>
       <r>   30.2022    0.0000 </r>
       <r>   38.4304    0.0000 </r>
       <r>   39.3463    0.0000 </r>
       <r>   42.7990    0.0000 </r>
       <r>   46.1926    0.0000 </r>
       <r>   47.6150    0.0000 </r>
       <r>   47.6851    0.0000 </r>
       <r>   51.6156    0.0000 </r>
       <r>   52.3626    0.0000 </r>
       <r>   52.5316    0.0000 </r>
       <r>   57.7013    0.0000 </r>
       <r>   58.6027    0.0000 </r>
      </set>
     </set>
    </set>
   </array>
  </eigenvalues>
  <separator name="orbital magnetization" >
   <v name="MAGDIPOLOUT">      0.00000000      0.00000000      0.00000000</v>
  </separator>
  <dos>
   <i name="efermi">     11.79532362 </i>
   <total>
    <array>
     <dimension dim="1">gridpoints</dimension>
     <dimension dim="2">spin</dimension>
     <field>energy</field>
     <field>total</field>
     <field>integrated</field>
     <set>
      <set comment="spin 1">
       <r>   -46.3373     0.0000     0.0000 </r>
       <r>   -45.9552     0.0000     0.0000 </r>
       <r>   -45.5731     0.0000     0.0000 </r>
       <r>   -45.1911     0.0000     0.0000 </r>
       <r>   -44.8090     0.0000     0.0000 </r>
       <r>   -44.4269     0.0000     0.0000 </r>
       <r>   -44.0448     0.0000     0.0000 </r>
       <r>   -43.6628     0.0000     0.0000 </r>
       <r>   -43.2807     0.0000     0.0000 </r>
       <r>   -42.8986     0.0000     0.0000 </r>
       <r>   -42.5166     0.0000     0.0000 </r>
       <r>   -42.1345     0.0000     0.0000 </r>
       <r>   -41.7524     0.0000     0.0000 </r>
       <r>   -41.3704     0.0000     0.0000 </r>
       <r>   -40.9883     4.0558     1.5496 </r>
       <r>   -40.6062    11.4647     5.9996 </r>
       <r>   -40.2241     0.0000     6.0000 </r>
       <r>   -39.8421     0.0000     6.0000 </r>
       <r>   -39.4600     0.0000     6.0000 </r>
       <r>   -39.0779     0.0000     6.0000 </r>
       <r>   -38.6959     0.0000     6.0000 </r>
       <r>   -38.3138     0.0000     6.0000 </r>
       <r>   -37.9317     0.0000     6.0000 </r>
       <r>   -37.5497     0.0000     6.0000 </r>
       <r>   -37.1676     0.0000     6.0000 </r>
       <r>   -36.7855     0.0000     6.0000 </r>
       <r>   -36.4034     0.0000     6.0000 </r>
       <r>   -36.0214     0.0000     6.0000 </r>
       <r>   -35.6393     0.0000     6.0000 </r>
       <r>   -35.2572     0.0000     6.0000 </r>
       <r>   -34.8752     0.0000     6.0000 </r>
       <r>   -34.4931     0.0000     6.0000 </r>
       <r>   -34.1110     0.0000     6.0000 </r>
       <r>   -33.7290     0.0000     6.0000 </r>
       <r>   -33.3469     0.0000     6.0000 </r>
       <r>   -32.9648     0.0000     6.0000 </r>
       <r>   -32.5827     0.0000     6.0000 </r>
       <r>   -32.2007     0.0000     6.0000 </r>
       <r>   -31.8186     0.0000     6.0000 </r>
       <r>   -31.4365     0.0000     6.0000 </r>
       <r>   -31.0545     0.0000     6.0000 </r>
       <r>   -30.6724     0.0000     6.0000 </r>
       <r>   -30.2903     0.0000     6.0000 </r>
       <r>   -29.9082     0.0000     6.0000 </r>
       <r>   -29.5262     0.0000     6.0000 </r>
       <r>   -29.1441     0.0000     6.0000 </r>
       <r>   -28.7620     0.0000     6.0000 </r>
       <r>   -28.3800     0.0000     6.0000 </r>
       <r>   -27.9979     0.0000     6.0000 </r>
       <r>   -27.6158     0.0000     6.0000 </r>
       <r>   -27.2338     0.0000     6.0000 </r>
       <r>   -26.8517     0.0000     6.0000 </r>
       <r>   -26.4696     0.0000     6.0000 </r>
       <r>   -26.0875     0.0000     6.0000 </r>
       <r>   -25.7055     0.0000     6.0000 </r>
       <r>   -25.3234     0.0000     6.0000 </r>
       <r>   -24.9413     0.0000     6.0000 </r>
       <r>   -24.5593     0.0000     6.0000 </r>
       <r>   -24.1772     0.0000     6.0000 </r>
       <r>   -23.7951     0.0000     6.0000 </r>
       <r>   -23.4131     0.0000     6.0000 </r>
       <r>   -23.0310     0.0000     6.0000 </r>
       <r>   -22.6489     0.0000     6.0000 </r>
       <r>   -22.2668     0.0000     6.0000 </r>
       <r>   -21.8848     0.0000     6.0000 </r>
       <r>   -21.5027     0.0000     6.0000 </r>
       <r>   -21.1206     0.0000     6.0000 </r>
       <r>   -20.7386     0.0000     6.0000 </r>
       <r>   -20.3565     0.0000     6.0000 </r>
       <r>   -19.9744     0.0000     6.0000 </r>
       <r>   -19.5924     0.0000     6.0000 </r>
       <r>   -19.2103     0.0000     6.0000 </r>
       <r>   -18.8282     0.0000     6.0000 </r>
       <r>   -18.4461     0.0000     6.0000 </r>
       <r>   -18.0641     0.0000     6.0000 </r>
       <r>   -17.6820     0.0000     6.0000 </r>
       <r>   -17.2999     0.0000     6.0000 </r>
       <r>   -16.9179     0.0000     6.0000 </r>
       <r>   -16.5358     0.0000     6.0000 </r>
       <r>   -16.1537     0.0000     6.0000 </r>
       <r>   -15.7717     0.0000     6.0000 </r>
       <r>   -15.3896     0.0000     6.0000 </r>
       <r>   -15.0075     0.0000     6.0000 </r>
       <r>   -14.6254     0.0000     6.0000 </r>
       <r>   -14.2434     0.0000     6.0000 </r>
       <r>   -13.8613     0.0000     6.0000 </r>
       <r>   -13.4792     0.0000     6.0000 </r>
       <r>   -13.0972     0.0000     6.0000 </r>
       <r>   -12.7151     0.0000     6.0000 </r>
       <r>   -12.3330     0.0000     6.0000 </r>
       <r>   -11.9509     0.0000     6.0000 </r>
       <r>   -11.5689     0.0000     6.0000 </r>
       <r>   -11.1868     0.0000     6.0000 </r>
       <r>   -10.8047     0.0000     6.0000 </r>
       <r>   -10.4227     0.0000     6.0000 </r>
       <r>   -10.0406     0.0000     6.0000 </r>
       <r>    -9.6585     0.0000     6.0000 </r>
       <r>    -9.2765     0.0000     6.0000 </r>
       <r>    -8.8944     0.0000     6.0000 </r>
       <r>    -8.5123     0.0000     6.0000 </r>
       <r>    -8.1302     0.0000     6.0000 </r>
       <r>    -7.7482     0.0000     6.0000 </r>
       <r>    -7.3661     0.0000     6.0000 </r>
       <r>    -6.9840     0.0000     6.0000 </r>
       <r>    -6.6020     0.0000     6.0000 </r>
       <r>    -6.2199     0.0000     6.0000 </r>
       <r>    -5.8378     0.0000     6.0000 </r>
       <r>    -5.4558     0.0000     6.0000 </r>
       <r>    -5.0737     0.0000     6.0000 </r>
       <r>    -4.6916     0.0000     6.0000 </r>
       <r>    -4.3095     0.0000     6.0000 </r>
       <r>    -3.9275     0.0000     6.0000 </r>
       <r>    -3.5454     0.0000     6.0000 </r>
       <r>    -3.1633     0.0000     6.0000 </r>
       <r>    -2.7813     0.0000     6.0000 </r>
       <r>    -2.3992     0.0000     6.0000 </r>
       <r>    -2.0171     0.0000     6.0000 </r>
       <r>    -1.6351     0.0000     6.0000 </r>
       <r>    -1.2530     0.0000     6.0000 </r>
       <r>    -0.8709     0.0000     6.0000 </r>
       <r>    -0.4888     0.0000     6.0000 </r>
       <r>    -0.1068     0.0000     6.0000 </r>
       <r>     0.2753     0.0000     6.0000 </r>
       <r>     0.6574     0.0000     6.0000 </r>
       <r>     1.0394     0.0000     6.0000 </r>
       <r>     1.4215     0.0000     6.0000 </r>
       <r>     1.8036     0.0000     6.0000 </r>
       <r>     2.1857     0.0485     6.0185 </r>
       <r>     2.5677     0.0002     6.0186 </r>
       <r>     2.9498     0.1452     6.0741 </r>
       <r>     3.3319     0.1258     6.1222 </r>
       <r>     3.7139     0.0150     6.1354 </r>
       <r>     4.0960     0.1789     6.2037 </r>
       <r>     4.4781     0.3616     6.3419 </r>
       <r>     4.8601     0.4012     6.4955 </r>
       <r>     5.2422     0.8133     6.8107 </r>
       <r>     5.6243     1.0389     7.2505 </r>
       <r>     6.0064     1.5021     7.8244 </r>
       <r>     6.3884     1.2705     8.3188 </r>
       <r>     6.7705     0.8796     8.6549 </r>
       <r>     7.1526     1.2783     9.1699 </r>
       <r>     7.5346     1.6611     9.8112 </r>
       <r>     7.9167     1.0695    10.2460 </r>
       <r>     8.2988     1.8805    10.9661 </r>
       <r>     8.6808     2.4222    11.8942 </r>
       <r>     9.0629     1.2930    12.4190 </r>
       <r>     9.4450     0.9293    12.7828 </r>
       <r>     9.8271     1.3435    13.2999 </r>
       <r>    10.2091     1.5928    13.9086 </r>
       <r>    10.5912     0.9821    14.2849 </r>
       <r>    10.9733     1.6155    14.9030 </r>
       <r>    11.3553     0.6714    15.1639 </r>
       <r>    11.7374     1.9338    15.9268 </r>
       <r>    12.1195     1.3153    16.4381 </r>
       <r>    12.5015     0.8474    16.7778 </r>
       <r>    12.8836     0.0000    16.7778 </r>
       <r>    13.2657     0.1454    16.8333 </r>
       <r>    13.6478     0.4450    17.0033 </r>
       <r>    14.0298     0.4123    17.1609 </r>
       <r>    14.4119     0.1453    17.2222 </r>
       <r>    14.7940     0.1347    17.2737 </r>
       <r>    15.1760     0.3015    17.3889 </r>
       <r>    15.5581     0.2908    17.5000 </r>
       <r>    15.9402     0.2404    17.5918 </r>
       <r>    16.3223     0.2902    17.7220 </r>
       <r>    16.7043     0.2908    17.8333 </r>
       <r>    17.0864     0.0000    17.8333 </r>
       <r>    17.4685     0.1228    17.8803 </r>
       <r>    17.8505     0.8660    18.2234 </r>
       <r>    18.2326     0.1420    18.2778 </r>
       <r>    18.6147     0.0000    18.2778 </r>
       <r>    18.9967     0.0032    18.2790 </r>
       <r>    19.3788     1.0631    18.6852 </r>
       <r>    19.7609     0.2908    18.7963 </r>
       <r>    20.1430     0.1917    18.8695 </r>
       <r>    20.5250     0.2447    18.9630 </r>
       <r>    20.9071     0.1452    19.0185 </r>
       <r>    21.2892     0.2910    19.1297 </r>
       <r>    21.6712     0.5351    19.3342 </r>
       <r>    22.0533     0.2908    19.4630 </r>
       <r>    22.4354     0.0000    19.4630 </r>
       <r>    22.8174     0.7163    19.7366 </r>
       <r>    23.1995     0.2632    19.8413 </r>
       <r>    23.5816     0.5477    20.0621 </r>
       <r>    23.9637     0.5816    20.2963 </r>
       <r>    24.3457     0.0944    20.3324 </r>
       <r>    24.7278     0.4886    20.5190 </r>
       <r>    25.1099     0.3379    20.6481 </r>
       <r>    25.4919     0.8592    20.9764 </r>
       <r>    25.8740     0.1702    21.0465 </r>
       <r>    26.2561     0.7053    21.3160 </r>
       <r>    26.6381     0.7723    21.6111 </r>
       <r>    27.0202     0.3957    21.7623 </r>
       <r>    27.4023     1.3976    22.2963 </r>
       <r>    27.7844     0.4567    22.4708 </r>
       <r>    28.1664     0.3141    22.5911 </r>
       <r>    28.5485     0.8794    22.9286 </r>
       <r>    28.9306     0.8664    23.2599 </r>
       <r>    29.3126     0.1474    23.3162 </r>
       <r>    29.6947     0.4324    23.4815 </r>
       <r>    30.0768     0.0479    23.4998 </r>
       <r>    30.4589     0.7364    23.7815 </r>
       <r>    30.8409     0.9614    24.1489 </r>
       <r>    31.2230     0.3191    24.2708 </r>
       <r>    31.6051     0.7616    24.5846 </r>
       <r>    31.9871     0.6602    24.8528 </r>
       <r>    32.3692     0.8543    25.1792 </r>
       <r>    32.7513     0.5747    25.4048 </r>
       <r>    33.1333     0.5706    25.6228 </r>
       <r>    33.5154     0.5995    25.8519 </r>
       <r>    33.8975     0.1415    25.9059 </r>
       <r>    34.2796     0.1881    25.9793 </r>
       <r>    34.6616     0.4192    26.1609 </r>
       <r>    35.0437     0.5512    26.3773 </r>
       <r>    35.4258     0.7754    26.6852 </r>
       <r>    35.8078     0.2900    26.7960 </r>
       <r>    36.1899     0.3875    26.9445 </r>
       <r>    36.5720     0.2557    27.0422 </r>
       <r>    36.9540     0.7478    27.3445 </r>
       <r>    37.3361     0.6713    27.6010 </r>
       <r>    37.7182     0.4332    27.7777 </r>
       <r>    38.1003     0.4856    27.9633 </r>
       <r>    38.4823     0.8307    28.2807 </r>
       <r>    38.8644     0.6887    28.5602 </r>
       <r>    39.2465     1.1519    29.0161 </r>
       <r>    39.6285     1.4631    29.5758 </r>
       <r>    40.0106     0.9202    29.9573 </r>
       <r>    40.3927     0.3642    30.1030 </r>
       <r>    40.7747     1.0878    30.5187 </r>
       <r>    41.1568     0.4837    30.7035 </r>
       <r>    41.5389     0.5835    30.9401 </r>
       <r>    41.9210     0.8092    31.2493 </r>
       <r>    42.3030     1.2167    31.7150 </r>
       <r>    42.6851     0.4980    31.9100 </r>
       <r>    43.0672     0.2839    32.0185 </r>
       <r>    43.4492     0.8458    32.3417 </r>
       <r>    43.8313     1.5017    32.9155 </r>
       <r>    44.2134     0.6156    33.1528 </r>
       <r>    44.5955     0.4669    33.3312 </r>
       <r>    44.9775     0.6324    33.5728 </r>
       <r>    45.3596     0.2908    33.6852 </r>
       <r>    45.7417     0.2908    33.7963 </r>
       <r>    46.1237     0.6388    34.0404 </r>
       <r>    46.5058     0.5316    34.2435 </r>
       <r>    46.8879     1.0044    34.6272 </r>
       <r>    47.2699     1.4558    35.1835 </r>
       <r>    47.6520     1.1962    35.6500 </r>
       <r>    48.0341     1.0522    36.0603 </r>
       <r>    48.4162     0.6673    36.3266 </r>
       <r>    48.7982     0.4733    36.5542 </r>
       <r>    49.1803     1.0701    36.9631 </r>
       <r>    49.5624     1.5736    37.5643 </r>
       <r>    49.9444     0.6264    37.8298 </r>
       <r>    50.3265     1.1052    38.2521 </r>
       <r>    50.7086     0.2915    38.3635 </r>
       <r>    51.0906     0.4363    38.5371 </r>
       <r>    51.4727     0.7233    38.8134 </r>
       <r>    51.8548     1.2891    39.3147 </r>
       <r>    52.2369     0.1034    39.3543 </r>
       <r>    52.6189     6.2270    41.7498 </r>
       <r>    53.0010     0.9755    42.1327 </r>
       <r>    53.3831     0.6956    42.4112 </r>
       <r>    53.7651     1.0833    42.8251 </r>
       <r>    54.1472     0.7486    43.1111 </r>
       <r>    54.5293     0.7626    43.4025 </r>
       <r>    54.9113     1.0427    43.8171 </r>
       <r>    55.2934     1.0118    44.2037 </r>
       <r>    55.6755     0.2497    44.2991 </r>
       <r>    56.0576     1.1074    44.7222 </r>
       <r>    56.4396     0.1628    44.7844 </r>
       <r>    56.8217     0.9551    45.1493 </r>
       <r>    57.2038     1.3991    45.6839 </r>
       <r>    57.5858     0.5307    45.8892 </r>
       <r>    57.9679     0.8270    46.2051 </r>
       <r>    58.3500     1.1921    46.6606 </r>
       <r>    58.7321     0.6221    46.9005 </r>
       <r>    59.1141     1.0356    47.2962 </r>
       <r>    59.4962     0.3768    47.4403 </r>
       <r>    59.8783     0.2322    47.5517 </r>
       <r>    60.2603     0.0016    47.5747 </r>
       <r>    60.6424     0.1923    47.6481 </r>
       <r>    61.0245     0.2913    47.7594 </r>
       <r>    61.4065     0.1382    47.8122 </r>
       <r>    61.7886     0.2007    47.8889 </r>
       <r>    62.1707     0.1453    47.9444 </r>
       <r>    62.5528     0.0000    47.9444 </r>
       <r>    62.9348     0.0000    47.9444 </r>
       <r>    63.3169     0.1454    48.0000 </r>
       <r>    63.6990     0.0000    48.0000 </r>
       <r>    64.0810     0.0000    48.0000 </r>
       <r>    64.4631     0.0000    48.0000 </r>
       <r>    64.8452     0.0000    48.0000 </r>
       <r>    65.2272     0.0000    48.0000 </r>
       <r>    65.6093     0.0000    48.0000 </r>
       <r>    65.9914     0.0000    48.0000 </r>
       <r>    66.3735     0.0000    48.0000 </r>
       <r>    66.7555     0.0000    48.0000 </r>
       <r>    67.1376     0.0000    48.0000 </r>
       <r>    67.5197     0.0000    48.0000 </r>
       <r>    67.9017     0.0000    48.0000 </r>
       <r>    68.2838     0.0000    48.0000 </r>
      </set>
     </set>
    </array>
   </total>
  </dos>
 </calculation>
 <structure name="finalpos" >
  <crystal>
   <varray name="basis" >
    <v>       0.00000000       1.97000000       1.97000000 </v>
    <v>       1.97000000       0.00000000       1.97000000 </v>
    <v>       1.97000000       1.97000000       0.00000000 </v>
   </varray>
   <i name="volume">     15.29074600 </i>
   <varray name="rec_basis" >
    <v>      -0.25380711       0.25380711       0.25380711 </v>
    <v>       0.25380711      -0.25380711       0.25380711 </v>
    <v>       0.25380711       0.25380711      -0.25380711 </v>
   </varray>
  </crystal>
  <varray name="positions" >
   <v>       0.00000000       0.00000000       0.00000000 </v>
  </varray>
 </structure>
</modeling>
