Pt-fcc                                  
   1.00000000000000     
     0.000000    2.011295    2.011295
     2.011295    0.000000    2.011295
     2.011295    2.011295    0.000000
   Pt
     1
Direct
  0.000000  0.000000  0.000000
 
   40   40   40
 0.14241978615E+03 0.14229144656E+03 0.14154112658E+03 0.13921408400E+03 0.13414263239E+03
 0.12542903560E+03 0.11286114139E+03 0.97102122791E+02 0.79575806975E+02 0.62088537588E+02
 0.46334549666E+02 0.33471680933E+02 0.23908827658E+02 0.17344459735E+02 0.12994207303E+02
 0.10009494047E+02 0.80043919412E+01 0.67190396643E+01 0.59434980129E+01 0.55329898474E+01
 0.54050145307E+01 0.55329898474E+01 0.59434980129E+01 0.67190396643E+01 0.80043919412E+01
 0.10009494047E+02 0.12994207303E+02 0.17344459735E+02 0.23908827658E+02 0.33471680933E+02
 0.46334549666E+02 0.62088537588E+02 0.79575806975E+02 0.97102122791E+02 0.11286114139E+03
 0.12542903560E+03 0.13414263239E+03 0.13921408400E+03 0.14154112658E+03 0.14229144656E+03
 0.14229144656E+03 0.14184966708E+03 0.14029274709E+03 0.13653935131E+03 0.12954089184E+03
 0.11874210606E+03 0.10438989365E+03 0.87567596221E+02 0.69935865227E+02 0.53279279998E+02
 0.39033750792E+02 0.27965179063E+02 0.20090477224E+02 0.14824627913E+02 0.11276443839E+02
 0.88430695432E+01 0.72456255050E+01 0.62480253159E+01 0.56748475714E+01 0.54148183344E+01
 0.54148190872E+01 0.56748494593E+01 0.62480273826E+01 0.72456266800E+01 0.88430691431E+01
 0.11276441947E+02 0.14824625369E+02 0.20090475282E+02 0.27965178754E+02 0.39033752332E+02
 0.53279282420E+02 0.69935866520E+02 0.87567593899E+02 0.10438988564E+03 0.11874209163E+03
 0.12954087206E+03 0.13653932915E+03 0.14029272669E+03 0.14184965268E+03 0.14229144136E+03
 0.14154112658E+03 0.14029274709E+03 0.13726721322E+03 0.13146078174E+03 0.12214549746E+03
 0.10924210771E+03 0.93477455166E+02 0.76258234741E+02 0.59305607743E+02 0.44192012081E+02
 0.31954403553E+02 0.22911742032E+02 0.16717608432E+02 0.12585685117E+02 0.97313716645E+01
 0.78136517920E+01 0.65826231711E+01 0.58383339793E+01 0.54435710988E+01 0.53203499425E+01
 0.54435736154E+01 0.58383377573E+01 0.65826262854E+01 0.78136525672E+01 0.97313695039E+01
 0.12585680870E+02 0.16717604081E+02 0.22911739804E+02 0.31954404754E+02 0.44192016207E+02
 0.59305612214E+02 0.76258235521E+02 0.93477448069E+02 0.10924209002E+03 0.12214546928E+03
 0.13146074644E+03 0.13726717696E+03 0.14029271725E+03 0.14154110974E+03 0.14184965268E+03
 0.13921408400E+03 0.13653935131E+03 0.13146078174E+03 0.12325254370E+03 0.11164888009E+03
 0.97079355066E+02 0.80661235867E+02 0.63943827398E+02 0.48501128236E+02 0.35528819161E+02
 0.25589430832E+02 0.18575065876E+02 0.13863439585E+02 0.10625186921E+02 0.83998632732E+01
 0.69362431189E+01 0.60187411394E+01 0.54892517383E+01 0.52481884813E+01 0.52481901320E+01
 0.54892558738E+01 0.60187456957E+01 0.69362457374E+01 0.83998624407E+01 0.10625182746E+02
 0.13863433880E+02 0.18575061406E+02 0.25589430050E+02 0.35528822885E+02 0.48501134872E+02
 0.63943833071E+02 0.80661235565E+02 0.97079344402E+02 0.11164885712E+03 0.12325251009E+03
 0.13146074279E+03 0.13653931478E+03 0.13921405796E+03 0.14029271725E+03 0.14029272669E+03
 0.13414263239E+03 0.12954089184E+03 0.12214549746E+03 0.11164888009E+03 0.98286358955E+02
 0.82913553887E+02 0.66857220519E+02 0.51590482220E+02 0.38356196083E+02 0.27878361412E+02
 0.20254445518E+02 0.15039514265E+02 0.11470093401E+02 0.89728206738E+01 0.72924640949E+01
 0.62083535741E+01 0.55483824096E+01 0.51960394673E+01 0.50856152045E+01 0.51960425095E+01
 0.55483870097E+01 0.62083574390E+01 0.72924651855E+01 0.89728181909E+01 0.11470088260E+02
 0.15039508811E+02 0.20254442552E+02 0.27878362913E+02 0.38356202121E+02 0.51590490549E+02
 0.66857227104E+02 0.82913554188E+02 0.98286349647E+02 0.11164886048E+03 0.12214547013E+03
 0.12954086223E+03 0.13414260731E+03 0.13653931478E+03 0.13726717696E+03 0.13653932915E+03
 0.12542903560E+03 0.11874210606E+03 0.10924210771E+03 0.97079355066E+02 0.82913553887E+02
 0.67849574895E+02 0.53200987027E+02 0.40167958286E+02 0.29550766536E+02 0.21599012858E+02
 0.16033337253E+02 0.12207314345E+02 0.94956374401E+01 0.76304108551E+01 0.63965590347E+01
 0.56159957385E+01 0.51610275471E+01 0.49522751180E+01 0.49522764110E+01 0.51610308239E+01
 0.56159994408E+01 0.63965613556E+01 0.76304105475E+01 0.94956344449E+01 0.12207309905E+02
 0.16033333500E+02 0.21599011952E+02 0.29550769748E+02 0.40167965341E+02 0.53200996021E+02
 0.67849582868E+02 0.82913557802E+02 0.97079352975E+02 0.10924209953E+03 0.11874209373E+03
 0.12542902259E+03 0.12954086223E+03 0.13146074279E+03 0.13146074644E+03 0.12954087206E+03
 0.11286114139E+03 0.10438989365E+03 0.93477455166E+02 0.80661235867E+02 0.66857220519E+02
 0.53200987027E+02 0.40791618246E+02 0.30433454195E+02 0.22469549354E+02 0.16757828216E+02
 0.12780973649E+02 0.99301722966E+01 0.79267517705E+01 0.65705751533E+01 0.56858042171E+01
 0.51398755357E+01 0.48448225929E+01 0.47516697155E+01 0.48448240346E+01 0.51398778045E+01
 0.56858063322E+01 0.65705761704E+01 0.79267511847E+01 0.99301702941E+01 0.12780971098E+02
 0.16757826411E+02 0.22469549591E+02 0.30433457336E+02 0.40791624432E+02 0.53200995594E+02
 0.66857230271E+02 0.80661245384E+02 0.93477463263E+02 0.10438989968E+03 0.11286114527E+03
 0.11874209373E+03 0.12214547013E+03 0.12325251009E+03 0.12214546928E+03 0.11874209163E+03
 0.97102122791E+02 0.87567596221E+02 0.76258234741E+02 0.63943827398E+02 0.51590482220E+02
 0.40167958286E+02 0.30433454195E+02 0.22770956006E+02 0.17140517991E+02 0.13145375521E+02
 0.10241944175E+02 0.81585261838E+01 0.67167958025E+01 0.57506799582E+01 0.51290491369E+01
 0.47604656563E+01 0.45891640673E+01 0.45891642280E+01 0.47604661163E+01 0.51290498447E+01
 0.57506807789E+01 0.67167965316E+01 0.81585265559E+01 0.10241943991E+02 0.13145374757E+02
 0.17140516953E+02 0.22770955378E+02 0.30433454972E+02 0.40167961607E+02 0.51590488989E+02
 0.63943838014E+02 0.76258248797E+02 0.87567612402E+02 0.97102139085E+02 0.10438989968E+03
 0.10924209953E+03 0.11164886048E+03 0.11164885712E+03 0.10924209002E+03 0.10438988564E+03
 0.79575806975E+02 0.69935865227E+02 0.59305607743E+02 0.48501128236E+02 0.38356196083E+02
 0.29550766536E+02 0.22469549354E+02 0.17140517991E+02 0.13270469483E+02 0.10404853668E+02
 0.83063092698E+01 0.68225795622E+01 0.58034580790E+01 0.51249783783E+01 0.46970246637E+01
 0.44613279015E+01 0.43860950741E+01 0.44613271908E+01 0.46970237029E+01 0.51249778426E+01
 0.58034584859E+01 0.68225809458E+01 0.83063110684E+01 0.10404854910E+02 0.13270469230E+02
 0.17140515830E+02 0.22469545831E+02 0.29550763132E+02 0.38356194966E+02 0.48501131487E+02
 0.59305616643E+02 0.69935879630E+02 0.79575825028E+02 0.87567612402E+02 0.93477463263E+02
 0.97079352975E+02 0.98286349647E+02 0.97079344402E+02 0.93477448069E+02 0.87567593899E+02
 0.62088537588E+02 0.53279279998E+02 0.44192012081E+02 0.35528819161E+02 0.27878361412E+02
 0.21599012858E+02 0.16757828216E+02 0.13145375521E+02 0.10404853668E+02 0.83570954285E+01
 0.68781427064E+01 0.58379497414E+01 0.51244040305E+01 0.46528675418E+01 0.43662260546E+01
 0.42306192399E+01 0.42306184614E+01 0.43662241343E+01 0.46528655060E+01 0.51244030384E+01
 0.58379504713E+01 0.68781449690E+01 0.83570981101E+01 0.10404855125E+02 0.13145374262E+02
 0.16757823580E+02 0.21599005530E+02 0.27878353292E+02 0.35528812942E+02 0.44192010285E+02
 0.53279284024E+02 0.62088547191E+02 0.69935879630E+02 0.76258248797E+02 0.80661245384E+02
 0.82913557802E+02 0.82913554188E+02 0.80661235565E+02 0.76258235521E+02 0.69935866520E+02
 0.46334549666E+02 0.39033750792E+02 0.31954403553E+02 0.25589430832E+02 0.20254445518E+02
 0.16033337253E+02 0.12780973649E+02 0.10241944175E+02 0.83063092698E+01 0.68781427064E+01
 0.58499448701E+01 0.51248069060E+01 0.46268404233E+01 0.43030024964E+01 0.41202300713E+01
 0.40610917691E+01 0.41202282793E+01 0.43029997629E+01 0.46268380714E+01 0.51248061136E+01
 0.58499461001E+01 0.68781453801E+01 0.83063119186E+01 0.10241944892E+02 0.12780970901E+02
 0.16033330408E+02 0.20254435343E+02 0.25589419200E+02 0.31954392943E+02 0.39033743499E+02
 0.46334546914E+02 0.53279284024E+02 0.59305616643E+02 0.63943838014E+02 0.66857230271E+02
 0.67849582868E+02 0.66857227104E+02 0.63943833071E+02 0.59305612214E+02 0.53279282420E+02
 0.33471680933E+02 0.27965179063E+02 0.22911742032E+02 0.18575065876E+02 0.15039514265E+02
 0.12207314345E+02 0.99301722966E+01 0.81585261838E+01 0.68225795622E+01 0.58379497414E+01
 0.51248069060E+01 0.46182434712E+01 0.42714040705E+01 0.40540550948E+01 0.39491121966E+01
 0.39491112863E+01 0.40540527589E+01 0.42714013080E+01 0.46182414880E+01 0.51248065757E+01
 0.58379512248E+01 0.68225821157E+01 0.81585284105E+01 0.99301725081E+01 0.12207311250E+02
 0.15039507292E+02 0.18575055491E+02 0.22911729587E+02 0.27965166277E+02 0.33471669551E+02
 0.39033743499E+02 0.44192010285E+02 0.48501131487E+02 0.51590488989E+02 0.53200995594E+02
 0.53200996021E+02 0.51590490549E+02 0.48501134872E+02 0.44192016207E+02 0.39033752332E+02
 0.23908827658E+02 0.20090477224E+02 0.16717608432E+02 0.13863439585E+02 0.11470093401E+02
 0.94956374401E+01 0.79267517705E+01 0.67167958025E+01 0.58034580790E+01 0.51244040305E+01
 0.46268404233E+01 0.42714040705E+01 0.40319846007E+01 0.38932952297E+01 0.38478009275E+01
 0.38932939576E+01 0.40319825367E+01 0.42714020035E+01 0.46268391797E+01 0.51244041516E+01
 0.58034596383E+01 0.67167982775E+01 0.79267542263E+01 0.94956386688E+01 0.11470092331E+02
 0.13863435520E+02 0.16717601148E+02 0.20090467236E+02 0.23908815824E+02 0.27965166277E+02
 0.31954392943E+02 0.35528812942E+02 0.38356194966E+02 0.40167961607E+02 0.40791624432E+02
 0.40167965341E+02 0.38356202121E+02 0.35528822885E+02 0.31954404754E+02 0.27965178754E+02
 0.17344459735E+02 0.14824627913E+02 0.12585685117E+02 0.10625186921E+02 0.89728206738E+01
 0.76304108551E+01 0.65705751533E+01 0.57506799582E+01 0.51249783783E+01 0.46528675418E+01
 0.43030024964E+01 0.40540550948E+01 0.38932952297E+01 0.38142054948E+01 0.38142052004E+01
 0.38932944215E+01 0.40540540119E+01 0.43030014981E+01 0.46528670772E+01 0.51249788639E+01
 0.57506816941E+01 0.65705781434E+01 0.76304147634E+01 0.89728247767E+01 0.10625190151E+02
 0.12585686433E+02 0.14824626314E+02 0.17344454771E+02 0.20090467236E+02 0.22911729587E+02
 0.25589419200E+02 0.27878353292E+02 0.29550763132E+02 0.30433454972E+02 0.30433457336E+02
 0.29550769748E+02 0.27878362913E+02 0.25589430050E+02 0.22911739804E+02 0.20090475282E+02
 0.12994207303E+02 0.11276443839E+02 0.97313716645E+01 0.83998632732E+01 0.72924640949E+01
 0.63965590347E+01 0.56858042171E+01 0.51290491369E+01 0.46970246637E+01 0.43662260546E+01
 0.41202300713E+01 0.39491121966E+01 0.38478009275E+01 0.38142052004E+01 0.38478011342E+01
 0.39491124571E+01 0.41202301986E+01 0.43662260065E+01 0.46970246993E+01 0.51290498116E+01
 0.56858062629E+01 0.63965630451E+01 0.72924702275E+01 0.83998710777E+01 0.97313799562E+01
 0.11276451073E+02 0.12994211964E+02 0.14824626314E+02 0.16717601148E+02 0.18575055491E+02
 0.20254435343E+02 0.21599005530E+02 0.22469545831E+02 0.22770955378E+02 0.22469549591E+02
 0.21599011952E+02 0.20254442552E+02 0.18575061406E+02 0.16717604081E+02 0.14824625369E+02
 0.10009494047E+02 0.88430695432E+01 0.78136517920E+01 0.69362431189E+01 0.62083535741E+01
 0.56159957385E+01 0.51398755357E+01 0.47604656563E+01 0.44613279015E+01 0.42306192399E+01
 0.40610917691E+01 0.39491112863E+01 0.38932939576E+01 0.38932944215E+01 0.39491124571E+01
 0.40610930904E+01 0.42306201393E+01 0.44613281121E+01 0.47604654854E+01 0.51398758317E+01
 0.56159976783E+01 0.62083581996E+01 0.69362508646E+01 0.78136622617E+01 0.88430814347E+01
 0.10009505474E+02 0.11276451073E+02 0.12585686433E+02 0.13863435520E+02 0.15039507292E+02
 0.16033330408E+02 0.16757823580E+02 0.17140515830E+02 0.17140516953E+02 0.16757826411E+02
 0.16033333500E+02 0.15039508811E+02 0.13863433880E+02 0.12585680870E+02 0.11276441947E+02
 0.80043919412E+01 0.72456255050E+01 0.65826231711E+01 0.60187411394E+01 0.55483824096E+01
 0.51610275471E+01 0.48448225929E+01 0.45891640673E+01 0.43860950741E+01 0.42306184614E+01
 0.41202282793E+01 0.40540527589E+01 0.40319825367E+01 0.40540540119E+01 0.41202301986E+01
 0.42306201393E+01 0.43860957223E+01 0.45891634159E+01 0.48448211321E+01 0.51610264207E+01
 0.55483830703E+01 0.60187448508E+01 0.65826304554E+01 0.72456359508E+01 0.80044042390E+01
 0.88430814347E+01 0.97313799562E+01 0.10625190151E+02 0.11470092331E+02 0.12207311250E+02
 0.12780970901E+02 0.13145374262E+02 0.13270469230E+02 0.13145374757E+02 0.12780971098E+02
 0.12207309905E+02 0.11470088260E+02 0.10625182746E+02 0.97313695039E+01 0.88430691431E+01
 0.67190396643E+01 0.62480253159E+01 0.58383339793E+01 0.54892517383E+01 0.51960394673E+01
 0.49522751180E+01 0.47516697155E+01 0.45891642280E+01 0.44613271908E+01 0.43662241343E+01
 0.43029997629E+01 0.42714013080E+01 0.42714020035E+01 0.43030014981E+01 0.43662260065E+01
 0.44613281121E+01 0.45891634159E+01 0.47516670369E+01 0.49522712544E+01 0.51960357287E+01
 0.54892496386E+01 0.58383347824E+01 0.62480295551E+01 0.67190469778E+01 0.72456359508E+01
 0.78136622617E+01 0.83998710777E+01 0.89728247767E+01 0.94956386688E+01 0.99301725081E+01
 0.10241944892E+02 0.10404855125E+02 0.10404854910E+02 0.10241943991E+02 0.99301702941E+01
 0.94956344449E+01 0.89728181909E+01 0.83998624407E+01 0.78136525672E+01 0.72456266800E+01
 0.59434980129E+01 0.56748475714E+01 0.54435710988E+01 0.52481884813E+01 0.50856152045E+01
 0.49522764110E+01 0.48448240346E+01 0.47604661163E+01 0.46970237029E+01 0.46528655060E+01
 0.46268380714E+01 0.46182414880E+01 0.46268391797E+01 0.46528670772E+01 0.46970246993E+01
 0.47604654854E+01 0.48448211321E+01 0.49522712544E+01 0.50856085327E+01 0.52481815708E+01
 0.54435653462E+01 0.56748441290E+01 0.59434974509E+01 0.62480295551E+01 0.65826304554E+01
 0.69362508646E+01 0.72924702275E+01 0.76304147634E+01 0.79267542263E+01 0.81585284105E+01
 0.83063119186E+01 0.83570981101E+01 0.83063110684E+01 0.81585265559E+01 0.79267511847E+01
 0.76304105475E+01 0.72924651855E+01 0.69362457374E+01 0.65826262854E+01 0.62480273826E+01
 0.55329898474E+01 0.54148183344E+01 0.53203499425E+01 0.52481901320E+01 0.51960425095E+01
 0.51610308239E+01 0.51398778045E+01 0.51290498447E+01 0.51249778426E+01 0.51244030384E+01
 0.51248061136E+01 0.51248065757E+01 0.51244041516E+01 0.51249788639E+01 0.51290498116E+01
 0.51398758317E+01 0.51610264207E+01 0.51960357287E+01 0.52481815708E+01 0.53203406296E+01
 0.54148094304E+01 0.55329823847E+01 0.56748441290E+01 0.58383347824E+01 0.60187448508E+01
 0.62083581996E+01 0.63965630451E+01 0.65705781434E+01 0.67167982775E+01 0.68225821157E+01
 0.68781453801E+01 0.68781449690E+01 0.68225809458E+01 0.67167965316E+01 0.65705761704E+01
 0.63965613556E+01 0.62083574390E+01 0.60187456957E+01 0.58383377573E+01 0.56748494593E+01
 0.54050145307E+01 0.54148190872E+01 0.54435736154E+01 0.54892558738E+01 0.55483870097E+01
 0.56159994408E+01 0.56858063322E+01 0.57506807789E+01 0.58034584859E+01 0.58379504713E+01
 0.58499461001E+01 0.58379512248E+01 0.58034596383E+01 0.57506816941E+01 0.56858062629E+01
 0.56159976783E+01 0.55483830703E+01 0.54892496386E+01 0.54435653462E+01 0.54148094304E+01
 0.54050043836E+01 0.54148094304E+01 0.54435653462E+01 0.54892496386E+01 0.55483830703E+01
 0.56159976783E+01 0.56858062629E+01 0.57506816941E+01 0.58034596383E+01 0.58379512248E+01
 0.58499461001E+01 0.58379504713E+01 0.58034584859E+01 0.57506807789E+01 0.56858063322E+01
 0.56159994408E+01 0.55483870097E+01 0.54892558738E+01 0.54435736154E+01 0.54148190872E+01
 0.55329898474E+01 0.56748494593E+01 0.58383377573E+01 0.60187456957E+01 0.62083574390E+01
 0.63965613556E+01 0.65705761704E+01 0.67167965316E+01 0.68225809458E+01 0.68781449690E+01
 0.68781453801E+01 0.68225821157E+01 0.67167982775E+01 0.65705781434E+01 0.63965630451E+01
 0.62083581996E+01 0.60187448508E+01 0.58383347824E+01 0.56748441290E+01 0.55329823847E+01
 0.54148094304E+01 0.53203406296E+01 0.52481815708E+01 0.51960357287E+01 0.51610264207E+01
 0.51398758317E+01 0.51290498116E+01 0.51249788639E+01 0.51244041516E+01 0.51248065757E+01
 0.51248061136E+01 0.51244030384E+01 0.51249778426E+01 0.51290498447E+01 0.51398778045E+01
 0.51610308239E+01 0.51960425095E+01 0.52481901320E+01 0.53203499425E+01 0.54148183344E+01
 0.59434980129E+01 0.62480273826E+01 0.65826262854E+01 0.69362457374E+01 0.72924651855E+01
 0.76304105475E+01 0.79267511847E+01 0.81585265559E+01 0.83063110684E+01 0.83570981101E+01
 0.83063119186E+01 0.81585284105E+01 0.79267542263E+01 0.76304147634E+01 0.72924702275E+01
 0.69362508646E+01 0.65826304554E+01 0.62480295551E+01 0.59434974509E+01 0.56748441290E+01
 0.54435653462E+01 0.52481815708E+01 0.50856085327E+01 0.49522712544E+01 0.48448211321E+01
 0.47604654854E+01 0.46970246993E+01 0.46528670772E+01 0.46268391797E+01 0.46182414880E+01
 0.46268380714E+01 0.46528655060E+01 0.46970237029E+01 0.47604661163E+01 0.48448240346E+01
 0.49522764110E+01 0.50856152045E+01 0.52481884813E+01 0.54435710988E+01 0.56748475714E+01
 0.67190396643E+01 0.72456266800E+01 0.78136525672E+01 0.83998624407E+01 0.89728181909E+01
 0.94956344449E+01 0.99301702941E+01 0.10241943991E+02 0.10404854910E+02 0.10404855125E+02
 0.10241944892E+02 0.99301725081E+01 0.94956386688E+01 0.89728247767E+01 0.83998710777E+01
 0.78136622617E+01 0.72456359508E+01 0.67190469778E+01 0.62480295551E+01 0.58383347824E+01
 0.54892496386E+01 0.51960357287E+01 0.49522712544E+01 0.47516670369E+01 0.45891634159E+01
 0.44613281121E+01 0.43662260065E+01 0.43030014981E+01 0.42714020035E+01 0.42714013080E+01
 0.43029997629E+01 0.43662241343E+01 0.44613271908E+01 0.45891642280E+01 0.47516697155E+01
 0.49522751180E+01 0.51960394673E+01 0.54892517383E+01 0.58383339793E+01 0.62480253159E+01
 0.80043919412E+01 0.88430691431E+01 0.97313695039E+01 0.10625182746E+02 0.11470088260E+02
 0.12207309905E+02 0.12780971098E+02 0.13145374757E+02 0.13270469230E+02 0.13145374262E+02
 0.12780970901E+02 0.12207311250E+02 0.11470092331E+02 0.10625190151E+02 0.97313799562E+01
 0.88430814347E+01 0.80044042390E+01 0.72456359508E+01 0.65826304554E+01 0.60187448508E+01
 0.55483830703E+01 0.51610264207E+01 0.48448211321E+01 0.45891634159E+01 0.43860957223E+01
 0.42306201393E+01 0.41202301986E+01 0.40540540119E+01 0.40319825367E+01 0.40540527589E+01
 0.41202282793E+01 0.42306184614E+01 0.43860950741E+01 0.45891640673E+01 0.48448225929E+01
 0.51610275471E+01 0.55483824096E+01 0.60187411394E+01 0.65826231711E+01 0.72456255050E+01
 0.10009494047E+02 0.11276441947E+02 0.12585680870E+02 0.13863433880E+02 0.15039508811E+02
 0.16033333500E+02 0.16757826411E+02 0.17140516953E+02 0.17140515830E+02 0.16757823580E+02
 0.16033330408E+02 0.15039507292E+02 0.13863435520E+02 0.12585686433E+02 0.11276451073E+02
 0.10009505474E+02 0.88430814347E+01 0.78136622617E+01 0.69362508646E+01 0.62083581996E+01
 0.56159976783E+01 0.51398758317E+01 0.47604654854E+01 0.44613281121E+01 0.42306201393E+01
 0.40610930904E+01 0.39491124571E+01 0.38932944215E+01 0.38932939576E+01 0.39491112863E+01
 0.40610917691E+01 0.42306192399E+01 0.44613279015E+01 0.47604656563E+01 0.51398755357E+01
 0.56159957385E+01 0.62083535741E+01 0.69362431189E+01 0.78136517920E+01 0.88430695432E+01
 0.12994207303E+02 0.14824625369E+02 0.16717604081E+02 0.18575061406E+02 0.20254442552E+02
 0.21599011952E+02 0.22469549591E+02 0.22770955378E+02 0.22469545831E+02 0.21599005530E+02
 0.20254435343E+02 0.18575055491E+02 0.16717601148E+02 0.14824626314E+02 0.12994211964E+02
 0.11276451073E+02 0.97313799562E+01 0.83998710777E+01 0.72924702275E+01 0.63965630451E+01
 0.56858062629E+01 0.51290498116E+01 0.46970246993E+01 0.43662260065E+01 0.41202301986E+01
 0.39491124571E+01 0.38478011342E+01 0.38142052004E+01 0.38478009275E+01 0.39491121966E+01
 0.41202300713E+01 0.43662260546E+01 0.46970246637E+01 0.51290491369E+01 0.56858042171E+01
 0.63965590347E+01 0.72924640949E+01 0.83998632732E+01 0.97313716645E+01 0.11276443839E+02
 0.17344459735E+02 0.20090475282E+02 0.22911739804E+02 0.25589430050E+02 0.27878362913E+02
 0.29550769748E+02 0.30433457336E+02 0.30433454972E+02 0.29550763132E+02 0.27878353292E+02
 0.25589419200E+02 0.22911729587E+02 0.20090467236E+02 0.17344454771E+02 0.14824626314E+02
 0.12585686433E+02 0.10625190151E+02 0.89728247767E+01 0.76304147634E+01 0.65705781434E+01
 0.57506816941E+01 0.51249788639E+01 0.46528670772E+01 0.43030014981E+01 0.40540540119E+01
 0.38932944215E+01 0.38142052004E+01 0.38142054948E+01 0.38932952297E+01 0.40540550948E+01
 0.43030024964E+01 0.46528675418E+01 0.51249783783E+01 0.57506799582E+01 0.65705751533E+01
 0.76304108551E+01 0.89728206738E+01 0.10625186921E+02 0.12585685117E+02 0.14824627913E+02
 0.23908827658E+02 0.27965178754E+02 0.31954404754E+02 0.35528822885E+02 0.38356202121E+02
 0.40167965341E+02 0.40791624432E+02 0.40167961607E+02 0.38356194966E+02 0.35528812942E+02
 0.31954392943E+02 0.27965166277E+02 0.23908815824E+02 0.20090467236E+02 0.16717601148E+02
 0.13863435520E+02 0.11470092331E+02 0.94956386688E+01 0.79267542263E+01 0.67167982775E+01
 0.58034596383E+01 0.51244041516E+01 0.46268391797E+01 0.42714020035E+01 0.40319825367E+01
 0.38932939576E+01 0.38478009275E+01 0.38932952297E+01 0.40319846007E+01 0.42714040705E+01
 0.46268404233E+01 0.51244040305E+01 0.58034580790E+01 0.67167958025E+01 0.79267517705E+01
 0.94956374401E+01 0.11470093401E+02 0.13863439585E+02 0.16717608432E+02 0.20090477224E+02
 0.33471680933E+02 0.39033752332E+02 0.44192016207E+02 0.48501134872E+02 0.51590490549E+02
 0.53200996021E+02 0.53200995594E+02 0.51590488989E+02 0.48501131487E+02 0.44192010285E+02
 0.39033743499E+02 0.33471669551E+02 0.27965166277E+02 0.22911729587E+02 0.18575055491E+02
 0.15039507292E+02 0.12207311250E+02 0.99301725081E+01 0.81585284105E+01 0.68225821157E+01
 0.58379512248E+01 0.51248065757E+01 0.46182414880E+01 0.42714013080E+01 0.40540527589E+01
 0.39491112863E+01 0.39491121966E+01 0.40540550948E+01 0.42714040705E+01 0.46182434712E+01
 0.51248069060E+01 0.58379497414E+01 0.68225795622E+01 0.81585261838E+01 0.99301722966E+01
 0.12207314345E+02 0.15039514265E+02 0.18575065876E+02 0.22911742032E+02 0.27965179063E+02
 0.46334549666E+02 0.53279282420E+02 0.59305612214E+02 0.63943833071E+02 0.66857227104E+02
 0.67849582868E+02 0.66857230271E+02 0.63943838014E+02 0.59305616643E+02 0.53279284024E+02
 0.46334546914E+02 0.39033743499E+02 0.31954392943E+02 0.25589419200E+02 0.20254435343E+02
 0.16033330408E+02 0.12780970901E+02 0.10241944892E+02 0.83063119186E+01 0.68781453801E+01
 0.58499461001E+01 0.51248061136E+01 0.46268380714E+01 0.43029997629E+01 0.41202282793E+01
 0.40610917691E+01 0.41202300713E+01 0.43030024964E+01 0.46268404233E+01 0.51248069060E+01
 0.58499448701E+01 0.68781427064E+01 0.83063092698E+01 0.10241944175E+02 0.12780973649E+02
 0.16033337253E+02 0.20254445518E+02 0.25589430832E+02 0.31954403553E+02 0.39033750792E+02
 0.62088537588E+02 0.69935866520E+02 0.76258235521E+02 0.80661235565E+02 0.82913554188E+02
 0.82913557802E+02 0.80661245384E+02 0.76258248797E+02 0.69935879630E+02 0.62088547191E+02
 0.53279284024E+02 0.44192010285E+02 0.35528812942E+02 0.27878353292E+02 0.21599005530E+02
 0.16757823580E+02 0.13145374262E+02 0.10404855125E+02 0.83570981101E+01 0.68781449690E+01
 0.58379504713E+01 0.51244030384E+01 0.46528655060E+01 0.43662241343E+01 0.42306184614E+01
 0.42306192399E+01 0.43662260546E+01 0.46528675418E+01 0.51244040305E+01 0.58379497414E+01
 0.68781427064E+01 0.83570954285E+01 0.10404853668E+02 0.13145375521E+02 0.16757828216E+02
 0.21599012858E+02 0.27878361412E+02 0.35528819161E+02 0.44192012081E+02 0.53279279998E+02
 0.79575806975E+02 0.87567593899E+02 0.93477448069E+02 0.97079344402E+02 0.98286349647E+02
 0.97079352975E+02 0.93477463263E+02 0.87567612402E+02 0.79575825028E+02 0.69935879630E+02
 0.59305616643E+02 0.48501131487E+02 0.38356194966E+02 0.29550763132E+02 0.22469545831E+02
 0.17140515830E+02 0.13270469230E+02 0.10404854910E+02 0.83063110684E+01 0.68225809458E+01
 0.58034584859E+01 0.51249778426E+01 0.46970237029E+01 0.44613271908E+01 0.43860950741E+01
 0.44613279015E+01 0.46970246637E+01 0.51249783783E+01 0.58034580790E+01 0.68225795622E+01
 0.83063092698E+01 0.10404853668E+02 0.13270469483E+02 0.17140517991E+02 0.22469549354E+02
 0.29550766536E+02 0.38356196083E+02 0.48501128236E+02 0.59305607743E+02 0.69935865227E+02
 0.97102122791E+02 0.10438988564E+03 0.10924209002E+03 0.11164885712E+03 0.11164886048E+03
 0.10924209953E+03 0.10438989968E+03 0.97102139085E+02 0.87567612402E+02 0.76258248797E+02
 0.63943838014E+02 0.51590488989E+02 0.40167961607E+02 0.30433454972E+02 0.22770955378E+02
 0.17140516953E+02 0.13145374757E+02 0.10241943991E+02 0.81585265559E+01 0.67167965316E+01
 0.57506807789E+01 0.51290498447E+01 0.47604661163E+01 0.45891642280E+01 0.45891640673E+01
 0.47604656563E+01 0.51290491369E+01 0.57506799582E+01 0.67167958025E+01 0.81585261838E+01
 0.10241944175E+02 0.13145375521E+02 0.17140517991E+02 0.22770956006E+02 0.30433454195E+02
 0.40167958286E+02 0.51590482220E+02 0.63943827398E+02 0.76258234741E+02 0.87567596221E+02
 0.11286114139E+03 0.11874209163E+03 0.12214546928E+03 0.12325251009E+03 0.12214547013E+03
 0.11874209373E+03 0.11286114527E+03 0.10438989968E+03 0.93477463263E+02 0.80661245384E+02
 0.66857230271E+02 0.53200995594E+02 0.40791624432E+02 0.30433457336E+02 0.22469549591E+02
 0.16757826411E+02 0.12780971098E+02 0.99301702941E+01 0.79267511847E+01 0.65705761704E+01
 0.56858063322E+01 0.51398778045E+01 0.48448240346E+01 0.47516697155E+01 0.48448225929E+01
 0.51398755357E+01 0.56858042171E+01 0.65705751533E+01 0.79267517705E+01 0.99301722966E+01
 0.12780973649E+02 0.16757828216E+02 0.22469549354E+02 0.30433454195E+02 0.40791618246E+02
 0.53200987027E+02 0.66857220519E+02 0.80661235867E+02 0.93477455166E+02 0.10438989365E+03
 0.12542903560E+03 0.12954087206E+03 0.13146074644E+03 0.13146074279E+03 0.12954086223E+03
 0.12542902259E+03 0.11874209373E+03 0.10924209953E+03 0.97079352975E+02 0.82913557802E+02
 0.67849582868E+02 0.53200996021E+02 0.40167965341E+02 0.29550769748E+02 0.21599011952E+02
 0.16033333500E+02 0.12207309905E+02 0.94956344449E+01 0.76304105475E+01 0.63965613556E+01
 0.56159994408E+01 0.51610308239E+01 0.49522764110E+01 0.49522751180E+01 0.51610275471E+01
 0.56159957385E+01 0.63965590347E+01 0.76304108551E+01 0.94956374401E+01 0.12207314345E+02
 0.16033337253E+02 0.21599012858E+02 0.29550766536E+02 0.40167958286E+02 0.53200987027E+02
 0.67849574895E+02 0.82913553887E+02 0.97079355066E+02 0.10924210771E+03 0.11874210606E+03
 0.13414263239E+03 0.13653932915E+03 0.13726717696E+03 0.13653931478E+03 0.13414260731E+03
 0.12954086223E+03 0.12214547013E+03 0.11164886048E+03 0.98286349647E+02 0.82913554188E+02
 0.66857227104E+02 0.51590490549E+02 0.38356202121E+02 0.27878362913E+02 0.20254442552E+02
 0.15039508811E+02 0.11470088260E+02 0.89728181909E+01 0.72924651855E+01 0.62083574390E+01
 0.55483870097E+01 0.51960425095E+01 0.50856152045E+01 0.51960394673E+01 0.55483824096E+01
 0.62083535741E+01 0.72924640949E+01 0.89728206738E+01 0.11470093401E+02 0.15039514265E+02
 0.20254445518E+02 0.27878361412E+02 0.38356196083E+02 0.51590482220E+02 0.66857220519E+02
 0.82913553887E+02 0.98286358955E+02 0.11164888009E+03 0.12214549746E+03 0.12954089184E+03
 0.13921408400E+03 0.14029272669E+03 0.14029271725E+03 0.13921405796E+03 0.13653931478E+03
 0.13146074279E+03 0.12325251009E+03 0.11164885712E+03 0.97079344402E+02 0.80661235565E+02
 0.63943833071E+02 0.48501134872E+02 0.35528822885E+02 0.25589430050E+02 0.18575061406E+02
 0.13863433880E+02 0.10625182746E+02 0.83998624407E+01 0.69362457374E+01 0.60187456957E+01
 0.54892558738E+01 0.52481901320E+01 0.52481884813E+01 0.54892517383E+01 0.60187411394E+01
 0.69362431189E+01 0.83998632732E+01 0.10625186921E+02 0.13863439585E+02 0.18575065876E+02
 0.25589430832E+02 0.35528819161E+02 0.48501128236E+02 0.63943827398E+02 0.80661235867E+02
 0.97079355066E+02 0.11164888009E+03 0.12325254370E+03 0.13146078174E+03 0.13653935131E+03
 0.14154112658E+03 0.14184965268E+03 0.14154110974E+03 0.14029271725E+03 0.13726717696E+03
 0.13146074644E+03 0.12214546928E+03 0.10924209002E+03 0.93477448069E+02 0.76258235521E+02
 0.59305612214E+02 0.44192016207E+02 0.31954404754E+02 0.22911739804E+02 0.16717604081E+02
 0.12585680870E+02 0.97313695039E+01 0.78136525672E+01 0.65826262854E+01 0.58383377573E+01
 0.54435736154E+01 0.53203499425E+01 0.54435710988E+01 0.58383339793E+01 0.65826231711E+01
 0.78136517920E+01 0.97313716645E+01 0.12585685117E+02 0.16717608432E+02 0.22911742032E+02
 0.31954403553E+02 0.44192012081E+02 0.59305607743E+02 0.76258234741E+02 0.93477455166E+02
 0.10924210771E+03 0.12214549746E+03 0.13146078174E+03 0.13726721322E+03 0.14029274709E+03
 0.14229144656E+03 0.14229144136E+03 0.14184965268E+03 0.14029272669E+03 0.13653932915E+03
 0.12954087206E+03 0.11874209163E+03 0.10438988564E+03 0.87567593899E+02 0.69935866520E+02
 0.53279282420E+02 0.39033752332E+02 0.27965178754E+02 0.20090475282E+02 0.14824625369E+02
 0.11276441947E+02 0.88430691431E+01 0.72456266800E+01 0.62480273826E+01 0.56748494593E+01
 0.54148190872E+01 0.54148183344E+01 0.56748475714E+01 0.62480253159E+01 0.72456255050E+01
 0.88430695432E+01 0.11276443839E+02 0.14824627913E+02 0.20090477224E+02 0.27965179063E+02
 0.39033750792E+02 0.53279279998E+02 0.69935865227E+02 0.87567596221E+02 0.10438989365E+03
 0.11874210606E+03 0.12954089184E+03 0.13653935131E+03 0.14029274709E+03 0.14184966708E+03
 0.14229144656E+03 0.14184966708E+03 0.14029274709E+03 0.13653935131E+03 0.12954089184E+03
 0.11874210606E+03 0.10438989365E+03 0.87567596221E+02 0.69935865227E+02 0.53279279998E+02
 0.39033750792E+02 0.27965179063E+02 0.20090477224E+02 0.14824627913E+02 0.11276443839E+02
 0.88430695432E+01 0.72456255050E+01 0.62480253159E+01 0.56748475714E+01 0.54148183344E+01
 0.54148190872E+01 0.56748494593E+01 0.62480273826E+01 0.72456266800E+01 0.88430691431E+01
 0.11276441947E+02 0.14824625369E+02 0.20090475282E+02 0.27965178754E+02 0.39033752332E+02