   1   1   1   0
  0.1627260E+02  0.2844400E-09  0.2844400E-09  0.2844400E-09  0.5000000E-15
  1.000000000000000E-004
  CAR 
 Pt-fcc                                  
     66.29871446    -47.19793028  301     10.63124136      1.00000000
    -47.198  0.0000E+00  0.0000E+00
    -46.820  0.0000E+00  0.0000E+00
    -46.441  0.0000E+00  0.0000E+00
    -46.063  0.0000E+00  0.0000E+00
    -45.685  0.0000E+00  0.0000E+00
    -45.306  0.0000E+00  0.0000E+00
    -44.928  0.0000E+00  0.0000E+00
    -44.550  0.0000E+00  0.0000E+00
    -44.171  0.0000E+00  0.0000E+00
    -43.793  0.0000E+00  0.0000E+00
    -43.415  0.0000E+00  0.0000E+00
    -43.036  0.0000E+00  0.0000E+00
    -42.658  0.0000E+00  0.0000E+00
    -42.280  0.2461E-14  0.9310E-15
    -41.901  0.4719E-01  0.1785E-01
    -41.523  0.1096E+00  0.6000E-01
    -41.145  0.0000E+00  0.6000E-01
    -40.766  0.0000E+00  0.6000E-01
    -40.388  0.0000E+00  0.6000E-01
    -40.010  0.0000E+00  0.6000E-01
    -39.631  0.0000E+00  0.6000E-01
    -39.253  0.0000E+00  0.6000E-01
    -38.875  0.0000E+00  0.6000E-01
    -38.497  0.0000E+00  0.6000E-01
    -38.118  0.0000E+00  0.6000E-01
    -37.740  0.0000E+00  0.6000E-01
    -37.362  0.0000E+00  0.6000E-01
    -36.983  0.0000E+00  0.6000E-01
    -36.605  0.0000E+00  0.6000E-01
    -36.227  0.0000E+00  0.6000E-01
    -35.848  0.0000E+00  0.6000E-01
    -35.470  0.0000E+00  0.6000E-01
    -35.092  0.0000E+00  0.6000E-01
    -34.713  0.0000E+00  0.6000E-01
    -34.335  0.0000E+00  0.6000E-01
    -33.957  0.0000E+00  0.6000E-01
    -33.578  0.0000E+00  0.6000E-01
    -33.200  0.0000E+00  0.6000E-01
    -32.822  0.0000E+00  0.6000E-01
    -32.443  0.0000E+00  0.6000E-01
    -32.065  0.0000E+00  0.6000E-01
    -31.687  0.0000E+00  0.6000E-01
    -31.308  0.0000E+00  0.6000E-01
    -30.930  0.0000E+00  0.6000E-01
    -30.552  0.0000E+00  0.6000E-01
    -30.173  0.0000E+00  0.6000E-01
    -29.795  0.0000E+00  0.6000E-01
    -29.417  0.0000E+00  0.6000E-01
    -29.038  0.0000E+00  0.6000E-01
    -28.660  0.0000E+00  0.6000E-01
    -28.282  0.0000E+00  0.6000E-01
    -27.904  0.0000E+00  0.6000E-01
    -27.525  0.0000E+00  0.6000E-01
    -27.147  0.0000E+00  0.6000E-01
    -26.769  0.0000E+00  0.6000E-01
    -26.390  0.0000E+00  0.6000E-01
    -26.012  0.0000E+00  0.6000E-01
    -25.634  0.0000E+00  0.6000E-01
    -25.255  0.0000E+00  0.6000E-01
    -24.877  0.0000E+00  0.6000E-01
    -24.499  0.0000E+00  0.6000E-01
    -24.120  0.0000E+00  0.6000E-01
    -23.742  0.0000E+00  0.6000E-01
    -23.364  0.0000E+00  0.6000E-01
    -22.985  0.0000E+00  0.6000E-01
    -22.607  0.0000E+00  0.6000E-01
    -22.229  0.0000E+00  0.6000E-01
    -21.850  0.0000E+00  0.6000E-01
    -21.472  0.0000E+00  0.6000E-01
    -21.094  0.0000E+00  0.6000E-01
    -20.715  0.0000E+00  0.6000E-01
    -20.337  0.0000E+00  0.6000E-01
    -19.959  0.0000E+00  0.6000E-01
    -19.580  0.0000E+00  0.6000E-01
    -19.202  0.0000E+00  0.6000E-01
    -18.824  0.0000E+00  0.6000E-01
    -18.445  0.0000E+00  0.6000E-01
    -18.067  0.0000E+00  0.6000E-01
    -17.689  0.0000E+00  0.6000E-01
    -17.310  0.0000E+00  0.6000E-01
    -16.932  0.0000E+00  0.6000E-01
    -16.554  0.0000E+00  0.6000E-01
    -16.176  0.0000E+00  0.6000E-01
    -15.797  0.0000E+00  0.6000E-01
    -15.419  0.0000E+00  0.6000E-01
    -15.041  0.0000E+00  0.6000E-01
    -14.662  0.0000E+00  0.6000E-01
    -14.284  0.0000E+00  0.6000E-01
    -13.906  0.0000E+00  0.6000E-01
    -13.527  0.0000E+00  0.6000E-01
    -13.149  0.0000E+00  0.6000E-01
    -12.771  0.0000E+00  0.6000E-01
    -12.392  0.0000E+00  0.6000E-01
    -12.014  0.0000E+00  0.6000E-01
    -11.636  0.0000E+00  0.6000E-01
    -11.257  0.0000E+00  0.6000E-01
    -10.879  0.0000E+00  0.6000E-01
    -10.501  0.0000E+00  0.6000E-01
    -10.122  0.0000E+00  0.6000E-01
     -9.744  0.0000E+00  0.6000E-01
     -9.366  0.0000E+00  0.6000E-01
     -8.987  0.0000E+00  0.6000E-01
     -8.609  0.0000E+00  0.6000E-01
     -8.231  0.0000E+00  0.6000E-01
     -7.852  0.0000E+00  0.6000E-01
     -7.474  0.0000E+00  0.6000E-01
     -7.096  0.0000E+00  0.6000E-01
     -6.717  0.0000E+00  0.6000E-01
     -6.339  0.0000E+00  0.6000E-01
     -5.961  0.0000E+00  0.6000E-01
     -5.582  0.0000E+00  0.6000E-01
     -5.204  0.0000E+00  0.6000E-01
     -4.826  0.0000E+00  0.6000E-01
     -4.448  0.0000E+00  0.6000E-01
     -4.069  0.0000E+00  0.6000E-01
     -3.691  0.0000E+00  0.6000E-01
     -3.313  0.0000E+00  0.6000E-01
     -2.934  0.0000E+00  0.6000E-01
     -2.556  0.0000E+00  0.6000E-01
     -2.178  0.0000E+00  0.6000E-01
     -1.799  0.0000E+00  0.6000E-01
     -1.421  0.0000E+00  0.6000E-01
     -1.043  0.0000E+00  0.6000E-01
     -0.664  0.0000E+00  0.6000E-01
     -0.286  0.0000E+00  0.6000E-01
      0.092  0.0000E+00  0.6000E-01
      0.471  0.0000E+00  0.6000E-01
      0.849  0.0000E+00  0.6000E-01
      1.227  0.5186E-05  0.6000E-01
      1.606  0.4111E-03  0.6016E-01
      1.984  0.4142E-03  0.6032E-01
      2.362  0.9651E-03  0.6068E-01
      2.741  0.9203E-03  0.6103E-01
      3.119  0.1294E-02  0.6153E-01
      3.497  0.1600E-02  0.6214E-01
      3.876  0.2224E-02  0.6301E-01
      4.254  0.4322E-02  0.6465E-01
      4.632  0.8877E-02  0.6801E-01
      5.011  0.1280E-01  0.7288E-01
      5.389  0.1512E-01  0.7869E-01
      5.767  0.1300E-01  0.8367E-01
      6.145  0.9375E-02  0.8742E-01
      6.524  0.1522E-01  0.9327E-01
      6.902  0.1486E-01  0.9902E-01
      7.280  0.1888E-01  0.1062E+00
      7.659  0.2402E-01  0.1155E+00
      8.037  0.1620E-01  0.1219E+00
      8.415  0.1227E-01  0.1267E+00
      8.794  0.1375E-01  0.1320E+00
      9.172  0.1533E-01  0.1378E+00
      9.550  0.1504E-01  0.1435E+00
      9.929  0.1364E-01  0.1487E+00
     10.307  0.1275E-01  0.1537E+00
     10.685  0.1988E-01  0.1613E+00
     11.064  0.1296E-01  0.1663E+00
     11.442  0.1491E-02  0.1669E+00
     11.820  0.4594E-02  0.1687E+00
     12.199  0.1314E-02  0.1692E+00
     12.577  0.3268E-02  0.1705E+00
     12.955  0.3113E-02  0.1716E+00
     13.334  0.3043E-02  0.1728E+00
     13.712  0.1635E-02  0.1734E+00
     14.090  0.3584E-02  0.1748E+00
     14.469  0.2720E-02  0.1758E+00
     14.847  0.2707E-02  0.1769E+00
     15.225  0.2176E-02  0.1777E+00
     15.604  0.1310E-02  0.1782E+00
     15.982  0.5800E-02  0.1804E+00
     16.360  0.1572E-02  0.1811E+00
     16.739  0.4290E-02  0.1827E+00
     17.117  0.1994E-02  0.1835E+00
     17.495  0.2931E-02  0.1846E+00
     17.873  0.3394E-02  0.1859E+00
     18.252  0.3869E-02  0.1874E+00
     18.630  0.3110E-02  0.1885E+00
     19.008  0.3957E-02  0.1900E+00
     19.387  0.1643E-02  0.1908E+00
     19.765  0.2735E-02  0.1918E+00
     20.143  0.3249E-02  0.1931E+00
     20.522  0.5294E-02  0.1952E+00
     20.900  0.1438E-02  0.1958E+00
     21.278  0.4240E-02  0.1974E+00
     21.657  0.3662E-02  0.1988E+00
     22.035  0.3287E-02  0.2000E+00
     22.413  0.6697E-02  0.2026E+00
     22.792  0.4714E-02  0.2044E+00
     23.170  0.3905E-02  0.2059E+00
     23.548  0.4367E-02  0.2076E+00
     23.927  0.6108E-02  0.2100E+00
     24.305  0.4715E-02  0.2119E+00
     24.683  0.4149E-02  0.2135E+00
     25.062  0.5358E-02  0.2155E+00
     25.440  0.6920E-02  0.2182E+00
     25.818  0.9376E-02  0.2218E+00
     26.197  0.5961E-02  0.2241E+00
     26.575  0.6149E-02  0.2265E+00
     26.953  0.5074E-02  0.2284E+00
     27.332  0.8689E-02  0.2318E+00
     27.710  0.5653E-02  0.2339E+00
     28.088  0.2983E-02  0.2351E+00
     28.466  0.2686E-02  0.2361E+00
     28.845  0.6451E-02  0.2386E+00
     29.223  0.5200E-02  0.2406E+00
     29.601  0.6945E-02  0.2433E+00
     29.980  0.9215E-02  0.2468E+00
     30.358  0.7442E-02  0.2497E+00
     30.736  0.6906E-02  0.2524E+00
     31.115  0.6014E-02  0.2546E+00
     31.493  0.5005E-02  0.2566E+00
     31.871  0.5474E-02  0.2588E+00
     32.250  0.2745E-02  0.2598E+00
     32.628  0.3332E-02  0.2611E+00
     33.006  0.4712E-02  0.2629E+00
     33.385  0.4731E-02  0.2647E+00
     33.763  0.4068E-02  0.2663E+00
     34.141  0.3935E-02  0.2678E+00
     34.520  0.6509E-02  0.2703E+00
     34.898  0.6338E-02  0.2727E+00
     35.276  0.4956E-02  0.2746E+00
     35.655  0.5562E-02  0.2767E+00
     36.033  0.3637E-02  0.2781E+00
     36.411  0.7713E-02  0.2810E+00
     36.790  0.8978E-02  0.2845E+00
     37.168  0.6476E-02  0.2869E+00
     37.546  0.1316E-01  0.2920E+00
     37.925  0.1357E-01  0.2972E+00
     38.303  0.9057E-02  0.3007E+00
     38.681  0.1084E-01  0.3048E+00
     39.060  0.8250E-02  0.3080E+00
     39.438  0.4742E-02  0.3098E+00
     39.816  0.5604E-02  0.3120E+00
     40.194  0.5264E-02  0.3140E+00
     40.573  0.1254E-01  0.3188E+00
     40.951  0.9988E-02  0.3226E+00
     41.329  0.5961E-02  0.3249E+00
     41.708  0.7433E-02  0.3277E+00
     42.086  0.3847E-02  0.3292E+00
     42.464  0.1031E-01  0.3331E+00
     42.843  0.6393E-02  0.3355E+00
     43.221  0.4314E-02  0.3371E+00
     43.599  0.6657E-02  0.3397E+00
     43.978  0.5268E-02  0.3417E+00
     44.356  0.7306E-02  0.3445E+00
     44.734  0.8739E-02  0.3478E+00
     45.113  0.9657E-02  0.3515E+00
     45.491  0.1148E-01  0.3559E+00
     45.869  0.1329E-01  0.3611E+00
     46.248  0.8723E-02  0.3645E+00
     46.626  0.1046E-01  0.3685E+00
     47.004  0.1095E-01  0.3726E+00
     47.383  0.1136E-01  0.3770E+00
     47.761  0.6751E-02  0.3796E+00
     48.139  0.5492E-02  0.3818E+00
     48.518  0.8711E-02  0.3851E+00
     48.896  0.7705E-02  0.3881E+00
     49.274  0.5667E-02  0.3903E+00
     49.653  0.8446E-02  0.3935E+00
     50.031  0.1018E-01  0.3974E+00
     50.409  0.8092E-02  0.4005E+00
     50.788  0.7383E-02  0.4034E+00
     51.166  0.1014E-01  0.4072E+00
     51.544  0.1981E-01  0.4148E+00
     51.922  0.5214E-01  0.4346E+00
     52.301  0.5033E-02  0.4366E+00
     52.679  0.8418E-02  0.4398E+00
     53.057  0.9872E-02  0.4435E+00
     53.436  0.7722E-02  0.4465E+00
     53.814  0.1012E-01  0.4504E+00
     54.192  0.8225E-02  0.4536E+00
     54.571  0.6764E-02  0.4563E+00
     54.949  0.9665E-02  0.4600E+00
     55.327  0.6300E-02  0.4623E+00
     55.706  0.8929E-02  0.4658E+00
     56.084  0.6718E-02  0.4684E+00
     56.462  0.8115E-02  0.4715E+00
     56.841  0.5208E-02  0.4735E+00
     57.219  0.4304E-02  0.4751E+00
     57.597  0.2681E-02  0.4762E+00
     57.976  0.2249E-02  0.4770E+00
     58.354  0.2583E-02  0.4780E+00
     58.732  0.1795E-02  0.4787E+00
     59.111  0.1085E-02  0.4792E+00
     59.489  0.1268E-02  0.4796E+00
     59.867  0.0000E+00  0.4796E+00
     60.246  0.1565E-03  0.4797E+00
     60.624  0.4779E-03  0.4799E+00
     61.002  0.1583E-07  0.4799E+00
     61.381  0.3172E-03  0.4800E+00
     61.759  0.0000E+00  0.4800E+00
     62.137  0.0000E+00  0.4800E+00
     62.515  0.0000E+00  0.4800E+00
     62.894  0.0000E+00  0.4800E+00
     63.272  0.0000E+00  0.4800E+00
     63.650  0.0000E+00  0.4800E+00
     64.029  0.0000E+00  0.4800E+00
     64.407  0.0000E+00  0.4800E+00
     64.785  0.0000E+00  0.4800E+00
     65.164  0.0000E+00  0.4800E+00
     65.542  0.0000E+00  0.4800E+00
     65.920  0.0000E+00  0.4800E+00
     66.299  0.0000E+00  0.4800E+00
     66.29871446    -47.19793028  301     10.63124136      1.00000000
    -47.198  0.0000E+00  0.0000E+00  0.0000E+00  0.0000E+00  0.0000E+00  0.0000E+00  0.0000E+00  0.0000E+00  0.0000E+00
    -46.820  0.0000E+00  0.0000E+00  0.0000E+00  0.0000E+00  0.0000E+00  0.0000E+00  0.0000E+00  0.0000E+00  0.0000E+00
    -46.441  0.0000E+00  0.0000E+00  0.0000E+00  0.0000E+00  0.0000E+00  0.0000E+00  0.0000E+00  0.0000E+00  0.0000E+00
    -46.063  0.0000E+00  0.0000E+00  0.0000E+00  0.0000E+00  0.0000E+00  0.0000E+00  0.0000E+00  0.0000E+00  0.0000E+00
    -45.685  0.0000E+00  0.0000E+00  0.0000E+00  0.0000E+00  0.0000E+00  0.0000E+00  0.0000E+00  0.0000E+00  0.0000E+00
    -45.306  0.0000E+00  0.0000E+00  0.0000E+00  0.0000E+00  0.0000E+00  0.0000E+00  0.0000E+00  0.0000E+00  0.0000E+00
    -44.928  0.0000E+00  0.0000E+00  0.0000E+00  0.0000E+00  0.0000E+00  0.0000E+00  0.0000E+00  0.0000E+00  0.0000E+00
    -44.550  0.0000E+00  0.0000E+00  0.0000E+00  0.0000E+00  0.0000E+00  0.0000E+00  0.0000E+00  0.0000E+00  0.0000E+00
    -44.171  0.0000E+00  0.0000E+00  0.0000E+00  0.0000E+00  0.0000E+00  0.0000E+00  0.0000E+00  0.0000E+00  0.0000E+00
    -43.793  0.0000E+00  0.0000E+00  0.0000E+00  0.0000E+00  0.0000E+00  0.0000E+00  0.0000E+00  0.0000E+00  0.0000E+00
    -43.415  0.0000E+00  0.0000E+00  0.0000E+00  0.0000E+00  0.0000E+00  0.0000E+00  0.0000E+00  0.0000E+00  0.0000E+00
    -43.036  0.0000E+00  0.0000E+00  0.0000E+00  0.0000E+00  0.0000E+00  0.0000E+00  0.0000E+00  0.0000E+00  0.0000E+00
    -42.658  0.0000E+00  0.0000E+00  0.0000E+00  0.0000E+00  0.0000E+00  0.0000E+00  0.0000E+00  0.0000E+00  0.0000E+00
    -42.280  0.4221E-18  0.8068E-13  0.8068E-13  0.8068E-13  0.2216E-18  0.2216E-18  0.1675E-18  0.2216E-18  0.1675E-18
    -41.901  0.8681E-04  0.1551E+01  0.1551E+01  0.1551E+01  0.2650E-04  0.2650E-04  0.1101E-04  0.2650E-04  0.1101E-04
    -41.523  0.6943E-04  0.3627E+01  0.3627E+01  0.3627E+01  0.5802E-04  0.5802E-04  0.3350E-04  0.5802E-04  0.3350E-04
    -41.145  0.0000E+00  0.0000E+00  0.0000E+00  0.0000E+00  0.0000E+00  0.0000E+00  0.0000E+00  0.0000E+00  0.0000E+00
    -40.766  0.0000E+00  0.0000E+00  0.0000E+00  0.0000E+00  0.0000E+00  0.0000E+00  0.0000E+00  0.0000E+00  0.0000E+00
    -40.388  0.0000E+00  0.0000E+00  0.0000E+00  0.0000E+00  0.0000E+00  0.0000E+00  0.0000E+00  0.0000E+00  0.0000E+00
    -40.010  0.0000E+00  0.0000E+00  0.0000E+00  0.0000E+00  0.0000E+00  0.0000E+00  0.0000E+00  0.0000E+00  0.0000E+00
    -39.631  0.0000E+00  0.0000E+00  0.0000E+00  0.0000E+00  0.0000E+00  0.0000E+00  0.0000E+00  0.0000E+00  0.0000E+00
    -39.253  0.0000E+00  0.0000E+00  0.0000E+00  0.0000E+00  0.0000E+00  0.0000E+00  0.0000E+00  0.0000E+00  0.0000E+00
    -38.875  0.0000E+00  0.0000E+00  0.0000E+00  0.0000E+00  0.0000E+00  0.0000E+00  0.0000E+00  0.0000E+00  0.0000E+00
    -38.497  0.0000E+00  0.0000E+00  0.0000E+00  0.0000E+00  0.0000E+00  0.0000E+00  0.0000E+00  0.0000E+00  0.0000E+00
    -38.118  0.0000E+00  0.0000E+00  0.0000E+00  0.0000E+00  0.0000E+00  0.0000E+00  0.0000E+00  0.0000E+00  0.0000E+00
    -37.740  0.0000E+00  0.0000E+00  0.0000E+00  0.0000E+00  0.0000E+00  0.0000E+00  0.0000E+00  0.0000E+00  0.0000E+00
    -37.362  0.0000E+00  0.0000E+00  0.0000E+00  0.0000E+00  0.0000E+00  0.0000E+00  0.0000E+00  0.0000E+00  0.0000E+00
    -36.983  0.0000E+00  0.0000E+00  0.0000E+00  0.0000E+00  0.0000E+00  0.0000E+00  0.0000E+00  0.0000E+00  0.0000E+00
    -36.605  0.0000E+00  0.0000E+00  0.0000E+00  0.0000E+00  0.0000E+00  0.0000E+00  0.0000E+00  0.0000E+00  0.0000E+00
    -36.227  0.0000E+00  0.0000E+00  0.0000E+00  0.0000E+00  0.0000E+00  0.0000E+00  0.0000E+00  0.0000E+00  0.0000E+00
    -35.848  0.0000E+00  0.0000E+00  0.0000E+00  0.0000E+00  0.0000E+00  0.0000E+00  0.0000E+00  0.0000E+00  0.0000E+00
    -35.470  0.0000E+00  0.0000E+00  0.0000E+00  0.0000E+00  0.0000E+00  0.0000E+00  0.0000E+00  0.0000E+00  0.0000E+00
    -35.092  0.0000E+00  0.0000E+00  0.0000E+00  0.0000E+00  0.0000E+00  0.0000E+00  0.0000E+00  0.0000E+00  0.0000E+00
    -34.713  0.0000E+00  0.0000E+00  0.0000E+00  0.0000E+00  0.0000E+00  0.0000E+00  0.0000E+00  0.0000E+00  0.0000E+00
    -34.335  0.0000E+00  0.0000E+00  0.0000E+00  0.0000E+00  0.0000E+00  0.0000E+00  0.0000E+00  0.0000E+00  0.0000E+00
    -33.957  0.0000E+00  0.0000E+00  0.0000E+00  0.0000E+00  0.0000E+00  0.0000E+00  0.0000E+00  0.0000E+00  0.0000E+00
    -33.578  0.0000E+00  0.0000E+00  0.0000E+00  0.0000E+00  0.0000E+00  0.0000E+00  0.0000E+00  0.0000E+00  0.0000E+00
    -33.200  0.0000E+00  0.0000E+00  0.0000E+00  0.0000E+00  0.0000E+00  0.0000E+00  0.0000E+00  0.0000E+00  0.0000E+00
    -32.822  0.0000E+00  0.0000E+00  0.0000E+00  0.0000E+00  0.0000E+00  0.0000E+00  0.0000E+00  0.0000E+00  0.0000E+00
    -32.443  0.0000E+00  0.0000E+00  0.0000E+00  0.0000E+00  0.0000E+00  0.0000E+00  0.0000E+00  0.0000E+00  0.0000E+00
    -32.065  0.0000E+00  0.0000E+00  0.0000E+00  0.0000E+00  0.0000E+00  0.0000E+00  0.0000E+00  0.0000E+00  0.0000E+00
    -31.687  0.0000E+00  0.0000E+00  0.0000E+00  0.0000E+00  0.0000E+00  0.0000E+00  0.0000E+00  0.0000E+00  0.0000E+00
    -31.308  0.0000E+00  0.0000E+00  0.0000E+00  0.0000E+00  0.0000E+00  0.0000E+00  0.0000E+00  0.0000E+00  0.0000E+00
    -30.930  0.0000E+00  0.0000E+00  0.0000E+00  0.0000E+00  0.0000E+00  0.0000E+00  0.0000E+00  0.0000E+00  0.0000E+00
    -30.552  0.0000E+00  0.0000E+00  0.0000E+00  0.0000E+00  0.0000E+00  0.0000E+00  0.0000E+00  0.0000E+00  0.0000E+00
    -30.173  0.0000E+00  0.0000E+00  0.0000E+00  0.0000E+00  0.0000E+00  0.0000E+00  0.0000E+00  0.0000E+00  0.0000E+00
    -29.795  0.0000E+00  0.0000E+00  0.0000E+00  0.0000E+00  0.0000E+00  0.0000E+00  0.0000E+00  0.0000E+00  0.0000E+00
    -29.417  0.0000E+00  0.0000E+00  0.0000E+00  0.0000E+00  0.0000E+00  0.0000E+00  0.0000E+00  0.0000E+00  0.0000E+00
    -29.038  0.0000E+00  0.0000E+00  0.0000E+00  0.0000E+00  0.0000E+00  0.0000E+00  0.0000E+00  0.0000E+00  0.0000E+00
    -28.660  0.0000E+00  0.0000E+00  0.0000E+00  0.0000E+00  0.0000E+00  0.0000E+00  0.0000E+00  0.0000E+00  0.0000E+00
    -28.282  0.0000E+00  0.0000E+00  0.0000E+00  0.0000E+00  0.0000E+00  0.0000E+00  0.0000E+00  0.0000E+00  0.0000E+00
    -27.904  0.0000E+00  0.0000E+00  0.0000E+00  0.0000E+00  0.0000E+00  0.0000E+00  0.0000E+00  0.0000E+00  0.0000E+00
    -27.525  0.0000E+00  0.0000E+00  0.0000E+00  0.0000E+00  0.0000E+00  0.0000E+00  0.0000E+00  0.0000E+00  0.0000E+00
    -27.147  0.0000E+00  0.0000E+00  0.0000E+00  0.0000E+00  0.0000E+00  0.0000E+00  0.0000E+00  0.0000E+00  0.0000E+00
    -26.769  0.0000E+00  0.0000E+00  0.0000E+00  0.0000E+00  0.0000E+00  0.0000E+00  0.0000E+00  0.0000E+00  0.0000E+00
    -26.390  0.0000E+00  0.0000E+00  0.0000E+00  0.0000E+00  0.0000E+00  0.0000E+00  0.0000E+00  0.0000E+00  0.0000E+00
    -26.012  0.0000E+00  0.0000E+00  0.0000E+00  0.0000E+00  0.0000E+00  0.0000E+00  0.0000E+00  0.0000E+00  0.0000E+00
    -25.634  0.0000E+00  0.0000E+00  0.0000E+00  0.0000E+00  0.0000E+00  0.0000E+00  0.0000E+00  0.0000E+00  0.0000E+00
    -25.255  0.0000E+00  0.0000E+00  0.0000E+00  0.0000E+00  0.0000E+00  0.0000E+00  0.0000E+00  0.0000E+00  0.0000E+00
    -24.877  0.0000E+00  0.0000E+00  0.0000E+00  0.0000E+00  0.0000E+00  0.0000E+00  0.0000E+00  0.0000E+00  0.0000E+00
    -24.499  0.0000E+00  0.0000E+00  0.0000E+00  0.0000E+00  0.0000E+00  0.0000E+00  0.0000E+00  0.0000E+00  0.0000E+00
    -24.120  0.0000E+00  0.0000E+00  0.0000E+00  0.0000E+00  0.0000E+00  0.0000E+00  0.0000E+00  0.0000E+00  0.0000E+00
    -23.742  0.0000E+00  0.0000E+00  0.0000E+00  0.0000E+00  0.0000E+00  0.0000E+00  0.0000E+00  0.0000E+00  0.0000E+00
    -23.364  0.0000E+00  0.0000E+00  0.0000E+00  0.0000E+00  0.0000E+00  0.0000E+00  0.0000E+00  0.0000E+00  0.0000E+00
    -22.985  0.0000E+00  0.0000E+00  0.0000E+00  0.0000E+00  0.0000E+00  0.0000E+00  0.0000E+00  0.0000E+00  0.0000E+00
    -22.607  0.0000E+00  0.0000E+00  0.0000E+00  0.0000E+00  0.0000E+00  0.0000E+00  0.0000E+00  0.0000E+00  0.0000E+00
    -22.229  0.0000E+00  0.0000E+00  0.0000E+00  0.0000E+00  0.0000E+00  0.0000E+00  0.0000E+00  0.0000E+00  0.0000E+00
    -21.850  0.0000E+00  0.0000E+00  0.0000E+00  0.0000E+00  0.0000E+00  0.0000E+00  0.0000E+00  0.0000E+00  0.0000E+00
    -21.472  0.0000E+00  0.0000E+00  0.0000E+00  0.0000E+00  0.0000E+00  0.0000E+00  0.0000E+00  0.0000E+00  0.0000E+00
    -21.094  0.0000E+00  0.0000E+00  0.0000E+00  0.0000E+00  0.0000E+00  0.0000E+00  0.0000E+00  0.0000E+00  0.0000E+00
    -20.715  0.0000E+00  0.0000E+00  0.0000E+00  0.0000E+00  0.0000E+00  0.0000E+00  0.0000E+00  0.0000E+00  0.0000E+00
    -20.337  0.0000E+00  0.0000E+00  0.0000E+00  0.0000E+00  0.0000E+00  0.0000E+00  0.0000E+00  0.0000E+00  0.0000E+00
    -19.959  0.0000E+00  0.0000E+00  0.0000E+00  0.0000E+00  0.0000E+00  0.0000E+00  0.0000E+00  0.0000E+00  0.0000E+00
    -19.580  0.0000E+00  0.0000E+00  0.0000E+00  0.0000E+00  0.0000E+00  0.0000E+00  0.0000E+00  0.0000E+00  0.0000E+00
    -19.202  0.0000E+00  0.0000E+00  0.0000E+00  0.0000E+00  0.0000E+00  0.0000E+00  0.0000E+00  0.0000E+00  0.0000E+00
    -18.824  0.0000E+00  0.0000E+00  0.0000E+00  0.0000E+00  0.0000E+00  0.0000E+00  0.0000E+00  0.0000E+00  0.0000E+00
    -18.445  0.0000E+00  0.0000E+00  0.0000E+00  0.0000E+00  0.0000E+00  0.0000E+00  0.0000E+00  0.0000E+00  0.0000E+00
    -18.067  0.0000E+00  0.0000E+00  0.0000E+00  0.0000E+00  0.0000E+00  0.0000E+00  0.0000E+00  0.0000E+00  0.0000E+00
    -17.689  0.0000E+00  0.0000E+00  0.0000E+00  0.0000E+00  0.0000E+00  0.0000E+00  0.0000E+00  0.0000E+00  0.0000E+00
    -17.310  0.0000E+00  0.0000E+00  0.0000E+00  0.0000E+00  0.0000E+00  0.0000E+00  0.0000E+00  0.0000E+00  0.0000E+00
    -16.932  0.0000E+00  0.0000E+00  0.0000E+00  0.0000E+00  0.0000E+00  0.0000E+00  0.0000E+00  0.0000E+00  0.0000E+00
    -16.554  0.0000E+00  0.0000E+00  0.0000E+00  0.0000E+00  0.0000E+00  0.0000E+00  0.0000E+00  0.0000E+00  0.0000E+00
    -16.176  0.0000E+00  0.0000E+00  0.0000E+00  0.0000E+00  0.0000E+00  0.0000E+00  0.0000E+00  0.0000E+00  0.0000E+00
    -15.797  0.0000E+00  0.0000E+00  0.0000E+00  0.0000E+00  0.0000E+00  0.0000E+00  0.0000E+00  0.0000E+00  0.0000E+00
    -15.419  0.0000E+00  0.0000E+00  0.0000E+00  0.0000E+00  0.0000E+00  0.0000E+00  0.0000E+00  0.0000E+00  0.0000E+00
    -15.041  0.0000E+00  0.0000E+00  0.0000E+00  0.0000E+00  0.0000E+00  0.0000E+00  0.0000E+00  0.0000E+00  0.0000E+00
    -14.662  0.0000E+00  0.0000E+00  0.0000E+00  0.0000E+00  0.0000E+00  0.0000E+00  0.0000E+00  0.0000E+00  0.0000E+00
    -14.284  0.0000E+00  0.0000E+00  0.0000E+00  0.0000E+00  0.0000E+00  0.0000E+00  0.0000E+00  0.0000E+00  0.0000E+00
    -13.906  0.0000E+00  0.0000E+00  0.0000E+00  0.0000E+00  0.0000E+00  0.0000E+00  0.0000E+00  0.0000E+00  0.0000E+00
    -13.527  0.0000E+00  0.0000E+00  0.0000E+00  0.0000E+00  0.0000E+00  0.0000E+00  0.0000E+00  0.0000E+00  0.0000E+00
    -13.149  0.0000E+00  0.0000E+00  0.0000E+00  0.0000E+00  0.0000E+00  0.0000E+00  0.0000E+00  0.0000E+00  0.0000E+00
    -12.771  0.0000E+00  0.0000E+00  0.0000E+00  0.0000E+00  0.0000E+00  0.0000E+00  0.0000E+00  0.0000E+00  0.0000E+00
    -12.392  0.0000E+00  0.0000E+00  0.0000E+00  0.0000E+00  0.0000E+00  0.0000E+00  0.0000E+00  0.0000E+00  0.0000E+00
    -12.014  0.0000E+00  0.0000E+00  0.0000E+00  0.0000E+00  0.0000E+00  0.0000E+00  0.0000E+00  0.0000E+00  0.0000E+00
    -11.636  0.0000E+00  0.0000E+00  0.0000E+00  0.0000E+00  0.0000E+00  0.0000E+00  0.0000E+00  0.0000E+00  0.0000E+00
    -11.257  0.0000E+00  0.0000E+00  0.0000E+00  0.0000E+00  0.0000E+00  0.0000E+00  0.0000E+00  0.0000E+00  0.0000E+00
    -10.879  0.0000E+00  0.0000E+00  0.0000E+00  0.0000E+00  0.0000E+00  0.0000E+00  0.0000E+00  0.0000E+00  0.0000E+00
    -10.501  0.0000E+00  0.0000E+00  0.0000E+00  0.0000E+00  0.0000E+00  0.0000E+00  0.0000E+00  0.0000E+00  0.0000E+00
    -10.122  0.0000E+00  0.0000E+00  0.0000E+00  0.0000E+00  0.0000E+00  0.0000E+00  0.0000E+00  0.0000E+00  0.0000E+00
     -9.744  0.0000E+00  0.0000E+00  0.0000E+00  0.0000E+00  0.0000E+00  0.0000E+00  0.0000E+00  0.0000E+00  0.0000E+00
     -9.366  0.0000E+00  0.0000E+00  0.0000E+00  0.0000E+00  0.0000E+00  0.0000E+00  0.0000E+00  0.0000E+00  0.0000E+00
     -8.987  0.0000E+00  0.0000E+00  0.0000E+00  0.0000E+00  0.0000E+00  0.0000E+00  0.0000E+00  0.0000E+00  0.0000E+00
     -8.609  0.0000E+00  0.0000E+00  0.0000E+00  0.0000E+00  0.0000E+00  0.0000E+00  0.0000E+00  0.0000E+00  0.0000E+00
     -8.231  0.0000E+00  0.0000E+00  0.0000E+00  0.0000E+00  0.0000E+00  0.0000E+00  0.0000E+00  0.0000E+00  0.0000E+00
     -7.852  0.0000E+00  0.0000E+00  0.0000E+00  0.0000E+00  0.0000E+00  0.0000E+00  0.0000E+00  0.0000E+00  0.0000E+00
     -7.474  0.0000E+00  0.0000E+00  0.0000E+00  0.0000E+00  0.0000E+00  0.0000E+00  0.0000E+00  0.0000E+00  0.0000E+00
     -7.096  0.0000E+00  0.0000E+00  0.0000E+00  0.0000E+00  0.0000E+00  0.0000E+00  0.0000E+00  0.0000E+00  0.0000E+00
     -6.717  0.0000E+00  0.0000E+00  0.0000E+00  0.0000E+00  0.0000E+00  0.0000E+00  0.0000E+00  0.0000E+00  0.0000E+00
     -6.339  0.0000E+00  0.0000E+00  0.0000E+00  0.0000E+00  0.0000E+00  0.0000E+00  0.0000E+00  0.0000E+00  0.0000E+00
     -5.961  0.0000E+00  0.0000E+00  0.0000E+00  0.0000E+00  0.0000E+00  0.0000E+00  0.0000E+00  0.0000E+00  0.0000E+00
     -5.582  0.0000E+00  0.0000E+00  0.0000E+00  0.0000E+00  0.0000E+00  0.0000E+00  0.0000E+00  0.0000E+00  0.0000E+00
     -5.204  0.0000E+00  0.0000E+00  0.0000E+00  0.0000E+00  0.0000E+00  0.0000E+00  0.0000E+00  0.0000E+00  0.0000E+00
     -4.826  0.0000E+00  0.0000E+00  0.0000E+00  0.0000E+00  0.0000E+00  0.0000E+00  0.0000E+00  0.0000E+00  0.0000E+00
     -4.448  0.0000E+00  0.0000E+00  0.0000E+00  0.0000E+00  0.0000E+00  0.0000E+00  0.0000E+00  0.0000E+00  0.0000E+00
     -4.069  0.0000E+00  0.0000E+00  0.0000E+00  0.0000E+00  0.0000E+00  0.0000E+00  0.0000E+00  0.0000E+00  0.0000E+00
     -3.691  0.0000E+00  0.0000E+00  0.0000E+00  0.0000E+00  0.0000E+00  0.0000E+00  0.0000E+00  0.0000E+00  0.0000E+00
     -3.313  0.0000E+00  0.0000E+00  0.0000E+00  0.0000E+00  0.0000E+00  0.0000E+00  0.0000E+00  0.0000E+00  0.0000E+00
     -2.934  0.0000E+00  0.0000E+00  0.0000E+00  0.0000E+00  0.0000E+00  0.0000E+00  0.0000E+00  0.0000E+00  0.0000E+00
     -2.556  0.0000E+00  0.0000E+00  0.0000E+00  0.0000E+00  0.0000E+00  0.0000E+00  0.0000E+00  0.0000E+00  0.0000E+00
     -2.178  0.0000E+00  0.0000E+00  0.0000E+00  0.0000E+00  0.0000E+00  0.0000E+00  0.0000E+00  0.0000E+00  0.0000E+00
     -1.799  0.0000E+00  0.0000E+00  0.0000E+00  0.0000E+00  0.0000E+00  0.0000E+00  0.0000E+00  0.0000E+00  0.0000E+00
     -1.421  0.0000E+00  0.0000E+00  0.0000E+00  0.0000E+00  0.0000E+00  0.0000E+00  0.0000E+00  0.0000E+00  0.0000E+00
     -1.043  0.0000E+00  0.0000E+00  0.0000E+00  0.0000E+00  0.0000E+00  0.0000E+00  0.0000E+00  0.0000E+00  0.0000E+00
     -0.664  0.0000E+00  0.0000E+00  0.0000E+00  0.0000E+00  0.0000E+00  0.0000E+00  0.0000E+00  0.0000E+00  0.0000E+00
     -0.286  0.0000E+00  0.0000E+00  0.0000E+00  0.0000E+00  0.0000E+00  0.0000E+00  0.0000E+00  0.0000E+00  0.0000E+00
      0.092  0.0000E+00  0.0000E+00  0.0000E+00  0.0000E+00  0.0000E+00  0.0000E+00  0.0000E+00  0.0000E+00  0.0000E+00
      0.471  0.0000E+00  0.0000E+00  0.0000E+00  0.0000E+00  0.0000E+00  0.0000E+00  0.0000E+00  0.0000E+00  0.0000E+00
      0.849  0.0000E+00  0.0000E+00  0.0000E+00  0.0000E+00  0.0000E+00  0.0000E+00  0.0000E+00  0.0000E+00  0.0000E+00
      1.227  0.1933E-03  0.2029E-06  0.2029E-06  0.2029E-06  0.1232E-07  0.1232E-07  0.2869E-21  0.1232E-07  0.2869E-21
      1.606  0.1517E-01  0.4781E-04  0.4781E-04  0.4781E-04  0.5038E-05  0.5038E-05  0.4018E-05  0.5038E-05  0.4018E-05
      1.984  0.1494E-01  0.1067E-03  0.1067E-03  0.1067E-03  0.3787E-04  0.3787E-04  0.1212E-04  0.3787E-04  0.1212E-04
      2.362  0.3399E-01  0.3749E-03  0.3749E-03  0.3749E-03  0.1764E-03  0.1764E-03  0.9613E-04  0.1764E-03  0.9613E-04
      2.741  0.3116E-01  0.5024E-03  0.5024E-03  0.5024E-03  0.4076E-03  0.4076E-03  0.2504E-03  0.4076E-03  0.2504E-03
      3.119  0.4213E-01  0.8291E-03  0.8291E-03  0.8291E-03  0.1188E-02  0.1188E-02  0.5010E-03  0.1188E-02  0.5010E-03
      3.497  0.4878E-01  0.1187E-02  0.1187E-02  0.1187E-02  0.2826E-02  0.2826E-02  0.1029E-02  0.2826E-02  0.1029E-02
      3.876  0.6080E-01  0.1678E-02  0.1678E-02  0.1678E-02  0.7923E-02  0.7923E-02  0.2237E-02  0.7923E-02  0.2237E-02
      4.254  0.8739E-01  0.2163E-02  0.2163E-02  0.2163E-02  0.3934E-01  0.3934E-01  0.4852E-02  0.3934E-01  0.4852E-02
      4.632  0.1284E+00  0.3975E-02  0.3975E-02  0.3975E-02  0.7098E-01  0.7098E-01  0.7184E-01  0.7098E-01  0.7184E-01
      5.011  0.1111E+00  0.4585E-02  0.4585E-02  0.4585E-02  0.1286E+00  0.1286E+00  0.1409E+00  0.1286E+00  0.1409E+00
      5.389  0.8140E-01  0.4966E-02  0.4966E-02  0.4966E-02  0.2128E+00  0.2128E+00  0.1333E+00  0.2128E+00  0.1333E+00
      5.767  0.3814E-01  0.5371E-02  0.5371E-02  0.5371E-02  0.1896E+00  0.1896E+00  0.1317E+00  0.1896E+00  0.1317E+00
      6.145  0.6325E-02  0.5134E-02  0.5134E-02  0.5134E-02  0.1431E+00  0.1431E+00  0.1003E+00  0.1431E+00  0.1003E+00
      6.524  0.9034E-02  0.8178E-02  0.8178E-02  0.8178E-02  0.2038E+00  0.2038E+00  0.2151E+00  0.2038E+00  0.2151E+00
      6.902  0.1490E-01  0.6957E-02  0.6957E-02  0.6957E-02  0.2342E+00  0.2342E+00  0.1748E+00  0.2342E+00  0.1748E+00
      7.280  0.2548E-01  0.1025E-01  0.1025E-01  0.1025E-01  0.2912E+00  0.2912E+00  0.2332E+00  0.2912E+00  0.2332E+00
      7.659  0.2681E-01  0.1214E-01  0.1214E-01  0.1214E-01  0.3976E+00  0.3976E+00  0.2897E+00  0.3976E+00  0.2897E+00
      8.037  0.1475E-01  0.7938E-02  0.7938E-02  0.7938E-02  0.2709E+00  0.2709E+00  0.2061E+00  0.2709E+00  0.2061E+00
      8.415  0.1364E-01  0.6999E-02  0.6999E-02  0.6999E-02  0.1597E+00  0.1597E+00  0.2210E+00  0.1597E+00  0.2210E+00
      8.794  0.7656E-02  0.5610E-02  0.5610E-02  0.5610E-02  0.1385E+00  0.1385E+00  0.3413E+00  0.1385E+00  0.3413E+00
      9.172  0.1127E-01  0.6001E-02  0.6001E-02  0.6001E-02  0.1220E+00  0.1220E+00  0.4348E+00  0.1220E+00  0.4348E+00
      9.550  0.1207E-01  0.4299E-02  0.4299E-02  0.4299E-02  0.1704E+00  0.1704E+00  0.3753E+00  0.1704E+00  0.3753E+00
      9.929  0.5460E-02  0.3987E-02  0.3987E-02  0.3987E-02  0.1830E+00  0.1830E+00  0.3123E+00  0.1830E+00  0.3123E+00
     10.307  0.6614E-02  0.2630E-02  0.2630E-02  0.2630E-02  0.2170E+00  0.2170E+00  0.2385E+00  0.2170E+00  0.2385E+00
     10.685  0.6746E-02  0.1907E-02  0.1907E-02  0.1907E-02  0.4072E+00  0.4072E+00  0.3008E+00  0.4072E+00  0.3008E+00
     11.064  0.1719E-01  0.2917E-02  0.2917E-02  0.2917E-02  0.3061E+00  0.3061E+00  0.1185E+00  0.3061E+00  0.1185E+00
     11.442  0.5754E-02  0.2189E-02  0.2189E-02  0.2189E-02  0.1980E-01  0.1980E-01  0.1965E-01  0.1980E-01  0.1965E-01
     11.820  0.2908E-01  0.5522E-02  0.5522E-02  0.5522E-02  0.6733E-01  0.6733E-01  0.5421E-01  0.6733E-01  0.5421E-01