Co-fcc                                  
   1.00000000000000     
     0.000000    1.754268    1.754268
     1.754268    0.000000    1.754268
     1.754268    1.754268    0.000000
   Co
     1
Direct
  0.000000  0.000000  0.000000
 
   32   32   32
  102.35      100.09      93.604      83.751      71.710      58.738      45.963      34.276      24.307      16.427    
  10.750      7.1286      5.1694      4.2990      3.8908      3.6495      3.5693      3.6495      3.8908      4.2990    
  5.1694      7.1286      10.750      16.427      24.307      34.276      45.963      58.738      71.710      83.751    
  93.604      100.09      100.09      95.715      87.556      76.639      64.189      51.397      39.266      28.551    
  19.746      13.092      8.5702      5.9067      4.6075      4.0531      3.7357      3.5769      3.5769      3.7357    
  4.0531      4.6075      5.9067      8.5702      13.092      19.746      28.551      39.266      51.397      64.189    
  76.639      87.556      95.715      100.09      93.604      87.556      78.357      67.098      54.948      42.967    
  32.007      22.674      15.327      10.073      6.7590      4.9941      4.2156      3.8288      3.5981      3.5217    
  3.5981      3.8288      4.2156      4.9941      6.7590      10.073      15.327      22.674      32.007      42.967    
  54.948      67.098      78.357      87.556      93.604      95.715      83.751      76.639      67.098      56.184    
  44.940      34.268      24.860      17.178      11.442      7.6186      5.4283      4.3904      3.9205      3.6290    
  3.4846      3.4846      3.6290      3.9205      4.3904      5.4283      7.6186      11.442      17.178      24.860    
  34.268      44.940      56.184      67.098      76.639      83.751      87.556      87.556      71.710      64.189    
  54.948      44.940      35.055      26.029      18.400      12.485      8.3574      5.8486      4.5726      4.0026    
  3.6640      3.4633      3.3974      3.4633      3.6640      4.0026      4.5726      5.8486      8.3574      12.485    
  18.400      26.029      35.055      44.940      54.948      64.189      71.710      76.639      78.357      76.639    
  58.738      51.397      42.967      34.268      26.029      18.828      13.049      8.8565      6.1824      4.7375    
  4.0703      3.6974      3.4539      3.3353      3.3353      3.4539      3.6974      4.0703      4.7375      6.1824    
  8.8565      13.049      18.828      26.029      34.268      42.967      51.397      58.738      64.189      67.098    
  67.098      64.189      45.963      39.266      32.007      24.860      18.400      13.049      9.0328      6.3672    
  4.8533      4.1214      3.7245      3.4517      3.2943      3.2432      3.2943      3.4517      3.7245      4.1214    
  4.8533      6.3672      9.0328      13.049      18.400      24.860      32.007      39.266      45.963      51.397    
  54.948      56.184      54.948      51.397      34.276      28.551      22.674      17.178      12.485      8.8565    
  6.3672      4.8951      4.1494      3.7419      3.4526      3.2695      3.1822      3.1822      3.2695      3.4526    
  3.7419      4.1494      4.8951      6.3672      8.8565      12.485      17.178      22.674      28.551      34.276    
  39.266      42.967      44.940      44.940      42.967      39.266      24.307      19.746      15.327      11.442    
  8.3574      6.1824      4.8533      4.1494      3.7479      3.4539      3.2567      3.1460      3.1106      3.1460    
  3.2567      3.4539      3.7479      4.1494      4.8533      6.1824      8.3574      11.442      15.327      19.746    
  24.307      28.551      32.007      34.268      35.055      34.268      32.007      28.551      16.427      13.092    
  10.073      7.6186      5.8486      4.7375      4.1214      3.7419      3.4539      3.2528      3.1294      3.0716    
  3.0716      3.1294      3.2528      3.4539      3.7419      4.1214      4.7375      5.8486      7.6186      10.073    
  13.092      16.427      19.746      22.674      24.860      26.029      26.029      24.860      22.674      19.746    
  10.750      8.5702      6.7590      5.4283      4.5726      4.0703      3.7245      3.4526      3.2567      3.1294    
  3.0594      3.0372      3.0594      3.1294      3.2567      3.4526      3.7245      4.0703      4.5726      5.4283    
  6.7590      8.5702      10.750      13.092      15.327      17.178      18.400      18.828      18.400      17.178    
  15.327      13.092      7.1286      5.9067      4.9941      4.3904      4.0026      3.6974      3.4517      3.2695    
  3.1460      3.0716      3.0372      3.0372      3.0716      3.1460      3.2695      3.4517      3.6974      4.0026    
  4.3904      4.9941      5.9067      7.1286      8.5702      10.073      11.442      12.485      13.049      13.049    
  12.485      11.442      10.073      8.5702      5.1694      4.6075      4.2156      3.9205      3.6640      3.4539    
  3.2943      3.1822      3.1106      3.0716      3.0594      3.0716      3.1106      3.1822      3.2943      3.4539    
  3.6640      3.9205      4.2156      4.6075      5.1694      5.9067      6.7590      7.6186      8.3574      8.8565    
  9.0328      8.8565      8.3574      7.6186      6.7590      5.9067      4.2990      4.0531      3.8288      3.6290    
  3.4633      3.3353      3.2432      3.1822      3.1460      3.1294      3.1294      3.1460      3.1822      3.2432    
  3.3353      3.4633      3.6290      3.8288      4.0531      4.2990      4.6075      4.9941      5.4283      5.8486    
  6.1824      6.3672      6.3672      6.1824      5.8486      5.4283      4.9941      4.6075      3.8908      3.7357    
  3.5981      3.4846      3.3974      3.3353      3.2943      3.2695      3.2567      3.2528      3.2567      3.2695    
  3.2943      3.3353      3.3974      3.4846      3.5981      3.7357      3.8908      4.0531      4.2156      4.3904    
  4.5726      4.7375      4.8533      4.8951      4.8533      4.7375      4.5726      4.3904      4.2156      4.0531    
  3.6495      3.5769      3.5217      3.4846      3.4633      3.4539      3.4517      3.4526      3.4539      3.4539    
  3.4526      3.4517      3.4539      3.4633      3.4846      3.5217      3.5769      3.6495      3.7357      3.8288    
  3.9205      4.0026      4.0703      4.1214      4.1494      4.1494      4.1214      4.0703      4.0026      3.9205    
  3.8288      3.7357      3.5693      3.5769      3.5981      3.6290      3.6640      3.6974      3.7245      3.7419    
  3.7479      3.7419      3.7245      3.6974      3.6640      3.6290      3.5981      3.5769      3.5693      3.5769    
  3.5981      3.6290      3.6640      3.6974      3.7245      3.7419      3.7479      3.7419      3.7245      3.6974    
  3.6640      3.6290      3.5981      3.5769      3.6495      3.7357      3.8288      3.9205      4.0026      4.0703    
  4.1214      4.1494      4.1494      4.1214      4.0703      4.0026      3.9205      3.8288      3.7357      3.6495    
  3.5769      3.5217      3.4846      3.4633      3.4539      3.4517      3.4526      3.4539      3.4539      3.4526    
  3.4517      3.4539      3.4633      3.4846      3.5217      3.5769      3.8908      4.0531      4.2156      4.3904    
  4.5726      4.7375      4.8533      4.8951      4.8533      4.7375      4.5726      4.3904      4.2156      4.0531    
  3.8908      3.7357      3.5981      3.4846      3.3974      3.3353      3.2943      3.2695      3.2567      3.2528    
  3.2567      3.2695      3.2943      3.3353      3.3974      3.4846      3.5981      3.7357      4.2990      4.6075    
  4.9941      5.4283      5.8486      6.1824      6.3672      6.3672      6.1824      5.8486      5.4283      4.9941    
  4.6075      4.2990      4.0531      3.8288      3.6290      3.4633      3.3353      3.2432      3.1822      3.1460    
  3.1294      3.1294      3.1460      3.1822      3.2432      3.3353      3.4633      3.6290      3.8288      4.0531    
  5.1694      5.9067      6.7590      7.6186      8.3574      8.8565      9.0328      8.8565      8.3574      7.6186    
  6.7590      5.9067      5.1694      4.6075      4.2156      3.9205      3.6640      3.4539      3.2943      3.1822    
  3.1106      3.0716      3.0594      3.0716      3.1106      3.1822      3.2943      3.4539      3.6640      3.9205    
  4.2156      4.6075      7.1286      8.5702      10.073      11.442      12.485      13.049      13.049      12.485    
  11.442      10.073      8.5702      7.1286      5.9067      4.9941      4.3904      4.0026      3.6974      3.4517    
  3.2695      3.1460      3.0716      3.0372      3.0372      3.0716      3.1460      3.2695      3.4517      3.6974    
  4.0026      4.3904      4.9941      5.9067      10.750      13.092      15.327      17.178      18.400      18.828    
  18.400      17.178      15.327      13.092      10.750      8.5702      6.7590      5.4283      4.5726      4.0703    
  3.7245      3.4526      3.2567      3.1294      3.0594      3.0372      3.0594      3.1294      3.2567      3.4526    
  3.7245      4.0703      4.5726      5.4283      6.7590      8.5702      16.427      19.746      22.674      24.860    
  26.029      26.029      24.860      22.674      19.746      16.427      13.092      10.073      7.6186      5.8486    
  4.7375      4.1214      3.7419      3.4539      3.2528      3.1294      3.0716      3.0716      3.1294      3.2528    
  3.4539      3.7419      4.1214      4.7375      5.8486      7.6186      10.073      13.092      24.307      28.551    
  32.007      34.268      35.055      34.268      32.007      28.551      24.307      19.746      15.327      11.442    
  8.3574      6.1824      4.8533      4.1494      3.7479      3.4539      3.2567      3.1460      3.1106      3.1460    
  3.2567      3.4539      3.7479      4.1494      4.8533      6.1824      8.3574      11.442      15.327      19.746    
  34.276      39.266      42.967      44.940      44.940      42.967      39.266      34.276      28.551      22.674    
  17.178      12.485      8.8565      6.3672      4.8951      4.1494      3.7419      3.4526      3.2695      3.1822    
  3.1822      3.2695      3.4526      3.7419      4.1494      4.8951      6.3672      8.8565      12.485      17.178    
  22.674      28.551      45.963      51.397      54.948      56.184      54.948      51.397      45.963      39.266    
  32.007      24.860      18.400      13.049      9.0328      6.3672      4.8533      4.1214      3.7245      3.4517    
  3.2943      3.2432      3.2943      3.4517      3.7245      4.1214      4.8533      6.3672      9.0328      13.049    
  18.400      24.860      32.007      39.266      58.738      64.189      67.098      67.098      64.189      58.738    
  51.397      42.967      34.268      26.029      18.828      13.049      8.8565      6.1824      4.7375      4.0703    
  3.6974      3.4539      3.3353      3.3353      3.4539      3.6974      4.0703      4.7375      6.1824      8.8565    
  13.049      18.828      26.029      34.268      42.967      51.397      71.710      76.639      78.357      76.639    
  71.710      64.189      54.948      44.940      35.055      26.029      18.400      12.485      8.3574      5.8486    
  4.5726      4.0026      3.6640      3.4633      3.3974      3.4633      3.6640      4.0026      4.5726      5.8486    
  8.3574      12.485      18.400      26.029      35.055      44.940      54.948      64.189      83.751      87.556    
  87.556      83.751      76.639      67.098      56.184      44.940      34.268      24.860      17.178      11.442    
  7.6186      5.4283      4.3904      3.9205      3.6290      3.4846      3.4846      3.6290      3.9205      4.3904    
  5.4283      7.6186      11.442      17.178      24.860      34.268      44.940      56.184      67.098      76.639    
  93.604      95.715      93.604      87.556      78.357      67.098      54.948      42.967      32.007      22.674    
  15.327      10.073      6.7590      4.9941      4.2156      3.8288      3.5981      3.5217      3.5981      3.8288    
  4.2156      4.9941      6.7590      10.073      15.327      22.674      32.007      42.967      54.948      67.098    
  78.357      87.556      100.09      100.09      95.715      87.556      76.639      64.189      51.397      39.266    
  28.551      19.746      13.092      8.5702      5.9067      4.6075      4.0531      3.7357      3.5769      3.5769    
  3.7357      4.0531      4.6075      5.9067      8.5702      13.092      19.746      28.551      39.266      51.397    
  64.189      76.639      87.556      95.715      100.09      95.715      87.556      76.639      64.189      51.397    
  39.266      28.551      19.746      13.092      8.5702      5.9067      4.6075      4.0531      3.7357      3.5769    
  3.5769      3.7357      4.0531      4.6075      5.9067      8.5702      13.092      19.746      28.551      39.266    
  51.397      64.189      76.639      87.556      95.715      100.09      95.715      89.533      80.133      68.630    
  56.219      43.980      32.780      23.233      15.705      10.306      6.8878      5.0577      4.2489      3.8549    
  3.6204      3.5426      3.6204      3.8549      4.2489      5.0577      6.8878      10.306      15.705      23.233    
  32.780      43.980      56.219      68.630      80.133      89.533      95.715      97.873      87.556      80.133    
  70.177      58.792      47.063      35.924      26.089      18.035      11.993      7.9375      5.5920      4.4704    
  3.9746      3.6739      3.5244      3.5244      3.6739      3.9746      4.4704      5.5920      7.9375      11.993    
  18.035      26.089      35.924      47.063      58.792      70.177      80.133      87.556      91.530      91.530    
  76.639      68.630      58.792      48.136      37.602      27.964      19.787      13.406      8.9122      6.1452    
  4.7166      4.0856      3.7314      3.5203      3.4509      3.5203      3.7314      4.0856      4.7166      6.1452    
  8.9122      13.406      19.787      27.964      37.602      48.136      58.792      68.630      76.639      81.891    
  83.721      81.891      64.189      56.219      47.063      37.602      28.618      20.727      14.345      9.6643    
  6.6305      4.9585      4.1855      3.7861      3.5263      3.3991      3.3991      3.5263      3.7861      4.1855    
  4.9585      6.6305      9.6643      14.345      20.727      28.618      37.602      47.063      56.219      64.189    
  70.108      73.268      73.268      70.108      51.397      43.980      35.924      27.964      20.727      14.675    
  10.074      6.9627      5.1540      4.2710      3.8321      3.5373      3.3658      3.3100      3.3658      3.5373    
  3.8321      4.2710      5.1540      6.9627      10.074      14.675      20.727      27.964      35.924      43.980    
  51.397      57.411      61.340      62.706      61.340      57.411      39.266      32.780      26.089      19.787    
  14.345      10.074      7.0808      5.2634      4.3302      3.8649      3.5487      3.3464      3.2493      3.2493    
  3.3464      3.5487      3.8649      4.3302      5.2634      7.0808      10.074      14.345      19.787      26.089    
  32.780      39.266      44.905      49.080      51.304      51.304      49.080      44.905      28.551      23.233    
  18.035      13.406      9.6643      6.9627      5.2634      4.3515      3.8819      3.5570      3.3364      3.2116    
  3.1716      3.2116      3.3364      3.5570      3.8819      4.3515      5.2634      6.9627      9.6643      13.406    
  18.035      23.233      28.551      33.469      37.459      40.064      40.969      40.064      37.459      33.469    
  19.746      15.705      11.993      8.9122      6.6305      5.1540      4.3302      3.8819      3.5600      3.3324    
  3.1916      3.1253      3.1253      3.1916      3.3324      3.5600      3.8819      4.3302      5.1540      6.6305    
  8.9122      11.993      15.705      19.746      23.723      27.207      29.795      31.176      31.176      29.795    
  27.207      23.723      13.092      10.306      7.9375      6.1452      4.9585      4.2710      3.8649      3.5570    
  3.3324      3.1854      3.1041      3.0783      3.1041      3.1854      3.3324      3.5570      3.8649      4.2710    
  4.9585      6.1452      7.9375      10.306      13.092      16.031      18.803      21.079      22.573      23.094    
  22.573      21.079      18.803      16.031      8.5702      6.8878      5.5920      4.7166      4.1855      3.8321    
  3.5487      3.3364      3.1916      3.1041      3.0635      3.0635      3.1041      3.1916      3.3364      3.5487    
  3.8321      4.1855      4.7166      5.5920      6.8878      8.5702      10.504      12.480      14.254      15.592    
  16.312      16.312      15.592      14.254      12.480      10.504      5.9067      5.0577      4.4704      4.0856    
  3.7861      3.5373      3.3464      3.2116      3.1253      3.0783      3.0635      3.0783      3.1253      3.2116    
  3.3464      3.5373      3.7861      4.0856      4.4704      5.0577      5.9067      6.9913      8.2107      9.4133    
  10.430      11.111      11.350      11.111      10.430      9.4133      8.2107      6.9913      4.6075      4.2489    
  3.9746      3.7314      3.5263      3.3658      3.2493      3.1716      3.1253      3.1041      3.1041      3.1253    
  3.1716      3.2493      3.3658      3.5263      3.7314      3.9746      4.2489      4.6075      5.1011      5.7190    
  6.3972      7.0389      7.5400      7.8148      7.8148      7.5400      7.0389      6.3972      5.7190      5.1011    
  4.0531      3.8549      3.6739      3.5203      3.3991      3.3100      3.2493      3.2116      3.1916      3.1854    
  3.1916      3.2116      3.2493      3.3100      3.3991      3.5203      3.6739      3.8549      4.0531      4.2638    
  4.5161      4.8160      5.1336      5.4179      5.6152      5.6859      5.6152      5.4179      5.1336      4.8160    
  4.5161      4.2638      3.7357      3.6204      3.5244      3.4509      3.3991      3.3658      3.3464      3.3364    
  3.3324      3.3324      3.3364      3.3464      3.3658      3.3991      3.4509      3.5244      3.6204      3.7357    
  3.8637      3.9949      4.1204      4.2443      4.3630      4.4595      4.5139      4.5139      4.4595      4.3630    
  4.2443      4.1204      3.9949      3.8637      3.5769      3.5426      3.5244      3.5203      3.5263      3.5373    
  3.5487      3.5570      3.5600      3.5570      3.5487      3.5373      3.5263      3.5203      3.5244      3.5426    
  3.5769      3.6263      3.6870      3.7529      3.8170      3.8726      3.9149      3.9415      3.9506      3.9415    
  3.9149      3.8726      3.8170      3.7529      3.6870      3.6263      3.5769      3.6204      3.6739      3.7314    
  3.7861      3.8321      3.8649      3.8819      3.8819      3.8649      3.8321      3.7861      3.7314      3.6739    
  3.6204      3.5769      3.5475      3.5335      3.5333      3.5433      3.5584      3.5739      3.5862      3.5929    
  3.5929      3.5862      3.5739      3.5584      3.5433      3.5333      3.5335      3.5475      3.7357      3.8549    
  3.9746      4.0856      4.1855      4.2710      4.3302      4.3515      4.3302      4.2710      4.1855      4.0856    
  3.9746      3.8549      3.7357      3.6263      3.5335      3.4608      3.4085      3.3739      3.3531      3.3419    
  3.3366      3.3351      3.3366      3.3419      3.3531      3.3739      3.4085      3.4608      3.5335      3.6263    
  4.0531      4.2489      4.4704      4.7166      4.9585      5.1540      5.2634      5.2634      5.1540      4.9585    
  4.7166      4.4704      4.2489      4.0531      3.8637      3.6870      3.5333      3.4085      3.3136      3.2464    
  3.2023      3.1763      3.1645      3.1645      3.1763      3.2023      3.2464      3.3136      3.4085      3.5333    
  3.6870      3.8637      4.6075      5.0577      5.5920      6.1452      6.6305      6.9627      7.0808      6.9627    
  6.6305      6.1452      5.5920      5.0577      4.6075      4.2638      3.9949      3.7529      3.5433      3.3739    
  3.2464      3.1573      3.1004      3.0694      3.0596      3.0694      3.1004      3.1573      3.2464      3.3739    
  3.5433      3.7529      3.9949      4.2638      5.9067      6.8878      7.9375      8.9122      9.6643      10.074    
  10.074      9.6643      8.9122      7.9375      6.8878      5.9067      5.1011      4.5161      4.1204      3.8170    
  3.5584      3.3531      3.2023      3.1004      3.0391      3.0108      3.0108      3.0391      3.1004      3.2023    
  3.3531      3.5584      3.8169      4.1204      4.5161      5.1011      8.5702      10.306      11.993      13.406    
  14.345      14.675      14.345      13.406      11.993      10.306      8.5702      6.9913      5.7190      4.8160    
  4.2443      3.8726      3.5739      3.3419      3.1763      3.0694      3.0108      2.9922      3.0108      3.0694    
  3.1763      3.3419      3.5739      3.8726      4.2443      4.8160      5.7190      6.9913      13.092      15.705    
  18.035      19.787      20.727      20.727      19.787      18.035      15.705      13.092      10.504      8.2107    
  6.3972      5.1336      4.3630      3.9149      3.5862      3.3366      3.1645      3.0596      3.0108      3.0108    
  3.0596      3.1645      3.3366      3.5862      3.9149      4.3630      5.1336      6.3972      8.2107      10.504    
  19.746      23.233      26.089      27.964      28.618      27.964      26.089      23.233      19.746      16.031    
  12.480      9.4133      7.0389      5.4179      4.4595      3.9415      3.5929      3.3351      3.1645      3.0694    
  3.0391      3.0694      3.1645      3.3351      3.5929      3.9415      4.4595      5.4179      7.0389      9.4133    
  12.480      16.031      28.551      32.780      35.924      37.602      37.602      35.924      32.780      28.551    
  23.723      18.803      14.254      10.430      7.5400      5.6152      4.5139      3.9506      3.5929      3.3366    
  3.1763      3.1004      3.1004      3.1763      3.3366      3.5929      3.9506      4.5139      5.6152      7.5400    
  10.430      14.254      18.803      23.723      39.266      43.980      47.063      48.136      47.063      43.980    
  39.266      33.469      27.207      21.079      15.592      11.111      7.8148      5.6859      4.5139      3.9415    
  3.5862      3.3419      3.2023      3.1573      3.2023      3.3419      3.5862      3.9415      4.5139      5.6859    
  7.8148      11.111      15.592      21.079      27.207      33.469      51.397      56.219      58.792      58.792    
  56.219      51.397      44.905      37.459      29.795      22.573      16.312      11.350      7.8148      5.6152    
  4.4595      3.9149      3.5739      3.3531      3.2464      3.2464      3.3531      3.5739      3.9149      4.4595    
  5.6152      7.8148      11.350      16.312      22.573      29.795      37.459      44.905      64.189      68.630    
  70.177      68.630      64.189      57.411      49.080      40.064      31.176      23.094      16.312      11.111    
  7.5400      5.4179      4.3630      3.8726      3.5584      3.3739      3.3136      3.3739      3.5584      3.8726    
  4.3630      5.4179      7.5400      11.111      16.312      23.094      31.176      40.064      49.080      57.411    
  76.639      80.133      80.133      76.639      70.108      61.340      51.304      40.969      31.176      22.573    
  15.592      10.430      7.0389      5.1336      4.2443      3.8170      3.5433      3.4085      3.4085      3.5433    
  3.8169      4.2443      5.1336      7.0389      10.430      15.592      22.573      31.176      40.969      51.304    
  61.340      70.108      87.556      89.533      87.556      81.891      73.268      62.706      51.304      40.064    
  29.795      21.079      14.254      9.4133      6.3972      4.8160      4.1204      3.7529      3.5333      3.4608    
  3.5333      3.7529      4.1204      4.8160      6.3972      9.4133      14.254      21.079      29.795      40.064    
  51.304      62.706      73.268      81.891      95.715      95.715      91.530      83.721      73.268      61.340    
  49.080      37.459      27.207      18.803      12.480      8.2107      5.7190      4.5161      3.9949      3.6870    
  3.5335      3.5335      3.6870      3.9949      4.5161      5.7190      8.2107      12.480      18.803      27.207    
  37.459      49.080      61.340      73.268      83.721      91.530      100.09      97.873      91.530      81.891    
  70.108      57.411      44.905      33.469      23.723      16.031      10.504      6.9913      5.1011      4.2638    
  3.8637      3.6263      3.5475      3.6263      3.8637      4.2638      5.1011      6.9913      10.504      16.031    
  23.723      33.469      44.905      57.411      70.108      81.891      91.530      97.873      93.604      87.556    
  78.357      67.098      54.948      42.967      32.007      22.674      15.327      10.073      6.7590      4.9941    
  4.2156      3.8288      3.5981      3.5217      3.5981      3.8288      4.2156      4.9941      6.7590      10.073    
  15.327      22.674      32.007      42.967      54.948      67.098      78.357      87.556      93.604      95.715    
  87.556      80.133      70.177      58.792      47.063      35.924      26.089      18.035      11.993      7.9375    
  5.5920      4.4704      3.9746      3.6739      3.5244      3.5244      3.6739      3.9746      4.4704      5.5920    
  7.9375      11.993      18.035      26.089      35.924      47.063      58.792      70.177      80.133      87.556    
  91.530      91.530      78.357      70.177      60.131      49.250      38.491      28.640      20.272      13.730    
  9.1087      6.2511      4.7680      4.1142      3.7546      3.5400      3.4693      3.5400      3.7546      4.1142    
  4.7680      6.2511      9.1087      13.730      20.272      28.640      38.491      49.250      60.131      70.177    
  78.357      83.721      85.591      83.721      67.098      58.792      49.250      39.385      30.005      21.748    
  15.048      10.106      6.8780      5.0815      4.2475      3.8325      3.5641      3.4324      3.4324      3.5641    
  3.8325      4.2475      5.0815      6.8780      10.106      15.048      21.748      30.005      39.385      49.250    
  58.792      67.098      73.268      76.561      76.561      73.268      54.948      47.063      38.491      30.005    
  22.264      15.759      10.776      7.3699      5.3622      4.3719      3.9005      3.5917      3.4112      3.3523    
  3.4112      3.5917      3.9005      4.3719      5.3622      7.3699      10.776      15.759      22.264      30.005    
  38.491      47.063      54.948      61.340      65.515      66.967      65.515      61.340      42.967      35.924    
  28.640      21.748      15.759      11.012      7.6404      5.5573      4.4715      3.9527      3.6174      3.4012    
  3.2970      3.2970      3.4012      3.6174      3.9527      4.4715      5.5573      7.6404      11.012      15.759    
  21.748      28.640      35.924      42.967      49.080      53.604      56.012      56.012      53.604      49.080    
  32.007      26.089      20.272      15.048      10.776      7.6404      5.6272      4.5274      3.9854      3.6369    
  3.3980      3.2620      3.2182      3.2620      3.3980      3.6369      3.9854      4.5274      5.6272      7.6404    
  10.776      15.048      20.272      26.089      32.007      37.459      41.873      44.750      45.749      44.750    
  41.873      37.459      22.674      18.035      13.730      10.106      7.3699      5.5573      4.5274      3.9965    
  3.6473      3.3977      3.2421      3.1686      3.1686      3.2421      3.3977      3.6473      3.9965      4.5274    
  5.5573      7.3699      10.106      13.730      18.035      22.674      27.207      31.158      34.085      35.643    
  35.643      34.085      31.158      27.207      15.327      11.993      9.1087      6.8780      5.3622      4.4715    
  3.9854      3.6473      3.3979      3.2334      3.1420      3.1129      3.1420      3.2334      3.3979      3.6473    
  3.9854      4.4715      5.3622      6.8780      9.1087      11.993      15.327      18.803      22.052      24.703    
  26.438      27.041      26.438      24.703      22.052      18.803      10.073      7.9375      6.2511      5.0815    
  4.3719      3.9527      3.6369      3.3977      3.2334      3.1336      3.0873      3.0873      3.1336      3.2334    
  3.3977      3.6369      3.9527      4.3719      5.0815      6.2511      7.9375      10.073      12.480      14.903    
  17.056      18.670      19.534      19.534      18.670      17.056      14.903      12.480      6.7590      5.5920    
  4.7680      4.2475      3.9005      3.6174      3.3980      3.2421      3.1420      3.0873      3.0701      3.0873    
  3.1420      3.2421      3.3980      3.6174      3.9005      4.2475      4.7680      5.5920      6.7590      8.2107    
  9.8064      11.354      12.647      13.505      13.806      13.505      12.647      11.354      9.8064      8.2107    
  4.9941      4.4704      4.1142      3.8325      3.5917      3.4012      3.2620      3.1686      3.1129      3.0873    
  3.0873      3.1129      3.1686      3.2620      3.4012      3.5917      3.8325      4.1142      4.4704      4.9941    
  5.7190      6.6057      7.5557      8.4375      9.1173      9.4870      9.4870      9.1173      8.4375      7.5557    
  6.6057      5.7190      4.2156      3.9746      3.7546      3.5641      3.4112      3.2970      3.2182      3.1686    
  3.1420      3.1336      3.1420      3.1686      3.2182      3.2970      3.4112      3.5641      3.7546      3.9746    