Co-fcc                                  
   1.00000000000000     
     0.000000    1.806896    1.806896
     1.806896    0.000000    1.806896
     1.806896    1.806896    0.000000
   Co
     1
Direct
  0.000000  0.000000  0.000000
 
   36   36   36
  112.05      109.97      103.96      94.687      83.120      70.313      57.271      44.841      33.668      24.202    
  16.695      11.206      7.5913      5.5166      4.5037      4.0105      3.6841      3.4931      3.4307      3.4931    
  3.6841      4.0105      4.5037      5.5166      7.5913      11.206      16.695      24.202      33.668      44.841    
  57.271      70.313      83.120      94.687      103.96      109.97      109.97      105.92      98.287      87.889    
  75.742      62.878      50.220      38.508      28.285      19.899      13.506      9.0621      6.3242      4.8798    
  4.2086      3.8170      3.5614      3.4369      3.4369      3.5614      3.8170      4.2086      4.8798      6.3242    
  9.0621      13.506      19.899      28.285      38.508      50.220      62.878      75.742      87.889      98.287    
  105.92      109.97      103.96      98.287      89.540      78.611      66.494      54.140      42.357      31.770    
  22.817      15.743      10.602      7.2455      5.3415      4.4188      3.9524      3.6378      3.4544      3.3946    
  3.4544      3.6378      3.9524      4.4188      5.3415      7.2455      10.602      15.743      22.817      31.770    
  42.357      54.140      66.494      78.611      89.540      98.287      103.96      105.92      94.687      87.889    
  78.611      67.743      56.207      44.836      34.316      25.155      17.685      12.046      8.1846      5.8556    
  4.6541      4.0819      3.7168      3.4805      3.3660      3.3660      3.4805      3.7168      4.0819      4.6541    
  5.8556      8.1846      12.046      17.685      25.155      34.316      44.836      56.207      67.743      78.611    
  87.889      94.687      98.287      98.287      83.120      75.742      66.494      56.207      45.693      35.659    
  26.668      19.117      13.226      9.0273      6.3629      4.9030      4.1998      3.7924      3.5113      3.3493    
  3.2967      3.3493      3.5113      3.7924      4.1998      4.9030      6.3629      9.0273      13.226      19.117    
  26.668      35.659      45.693      56.207      66.494      75.742      83.120      87.889      89.540      87.889    
  70.313      62.878      54.140      44.836      35.659      27.191      19.877      13.998      9.6630      6.7930    
  5.1363      4.3070      3.8589      3.5425      3.3413      3.2448      3.2448      3.3413      3.5425      3.8589    
  4.3070      5.1363      6.7930      9.6630      13.998      19.877      27.192      35.659      44.836      54.140    
  62.878      70.313      75.742      78.611      78.611      75.742      57.271      50.220      42.357      34.316    
  26.668      19.877      14.267      10.005      7.0813      5.3187      4.3967      3.9119      3.5703      3.3390    
  3.2078      3.1655      3.2078      3.3390      3.5703      3.9119      4.3967      5.3186      7.0813      10.005    
  14.267      19.877      26.668      34.316      42.357      50.220      57.271      62.878      66.494      67.743    
  66.494      62.878      44.841      38.508      31.770      25.155      19.117      13.998      10.005      7.1828    
  5.4188      4.4574      3.9486      3.5919      3.3395      3.1825      3.1080      3.1080      3.1825      3.3396    
  3.5919      3.9486      4.4574      5.4188      7.1828      10.005      13.998      19.117      25.155      31.770    
  38.508      44.841      50.220      54.140      56.207      56.207      54.140      50.220      33.668      28.285    
  22.817      17.685      13.226      9.6630      7.0813      5.4188      4.4790      3.9672      3.6054      3.3409    
  3.1663      3.0689      3.0377      3.0689      3.1663      3.3409      3.6054      3.9672      4.4790      5.4188    
  7.0813      9.6630      13.226      17.685      22.817      28.285      33.668      38.508      42.357      44.836    
  45.693      44.836      42.357      38.508      24.202      19.899      15.743      12.046      9.0273      6.7930    
  5.3187      4.4574      3.9672      3.6100      3.3418      3.1574      3.0448      2.9920      2.9920      3.0448    
  3.1574      3.3418      3.6100      3.9672      4.4574      5.3186      6.7930      9.0273      12.046      15.743    
  19.899      24.202      28.285      31.770      34.316      35.659      35.659      34.316      31.770      28.285    
  16.695      13.506      10.602      8.1846      6.3629      5.1363      4.3967      3.9486      3.6054      3.3418    
  3.1546      3.0333      2.9664      2.9451      2.9664      3.0333      3.1546      3.3418      3.6054      3.9486    
  4.3967      5.1363      6.3629      8.1845      10.602      13.506      16.695      19.899      22.817      25.155    
  26.668      27.192      26.668      25.155      22.817      19.899      11.206      9.0621      7.2455      5.8556    
  4.9030      4.3070      3.9119      3.5919      3.3409      3.1574      3.0333      2.9582      2.9232      2.9232    
  2.9582      3.0333      3.1574      3.3409      3.5919      3.9119      4.3070      4.9030      5.8556      7.2454    
  9.0621      11.206      13.506      15.743      17.685      19.117      19.877      19.877      19.117      17.685    
  15.743      13.506      7.5913      6.3242      5.3415      4.6541      4.1998      3.8589      3.5703      3.3395    
  3.1663      3.0448      2.9664      2.9232      2.9095      2.9232      2.9664      3.0448      3.1663      3.3396    
  3.5703      3.8589      4.1998      4.6541      5.3415      6.3242      7.5913      9.0621      10.602      12.046    
  13.226      13.998      14.267      13.998      13.226      12.046      10.602      9.0621      5.5166      4.8798    
  4.4188      4.0819      3.7924      3.5425      3.3390      3.1825      3.0689      2.9920      2.9451      2.9232    
  2.9232      2.9451      2.9920      3.0689      3.1825      3.3390      3.5425      3.7924      4.0819      4.4188    
  4.8798      5.5166      6.3242      7.2454      8.1845      9.0273      9.6630      10.005      10.005      9.6630    
  9.0273      8.1846      7.2455      6.3242      4.5037      4.2086      3.9524      3.7168      3.5113      3.3413    
  3.2078      3.1080      3.0377      2.9920      2.9664      2.9582      2.9664      2.9920      3.0377      3.1080    
  3.2078      3.3413      3.5113      3.7168      3.9524      4.2086      4.5037      4.8798      5.3415      5.8556    
  6.3629      6.7930      7.0813      7.1828      7.0813      6.7930      6.3629      5.8556      5.3415      4.8798    
  4.0105      3.8170      3.6378      3.4805      3.3493      3.2448      3.1655      3.1080      3.0689      3.0448    
  3.0333      3.0333      3.0448      3.0689      3.1080      3.1655      3.2448      3.3493      3.4805      3.6378    
  3.8170      4.0105      4.2086      4.4188      4.6541      4.9030      5.1363      5.3186      5.4188      5.4188    
  5.3186      5.1363      4.9030      4.6541      4.4188      4.2086      3.6841      3.5614      3.4544      3.3660    
  3.2967      3.2448      3.2078      3.1825      3.1663      3.1574      3.1546      3.1574      3.1663      3.1825    
  3.2078      3.2448      3.2967      3.3660      3.4544      3.5614      3.6841      3.8170      3.9524      4.0819    
  4.1998      4.3070      4.3967      4.4574      4.4790      4.4574      4.3967      4.3070      4.1998      4.0819    
  3.9524      3.8170      3.4931      3.4369      3.3946      3.3660      3.3493      3.3413      3.3390      3.3396    
  3.3409      3.3418      3.3418      3.3409      3.3396      3.3390      3.3413      3.3493      3.3660      3.3946    
  3.4369      3.4931      3.5614      3.6378      3.7168      3.7924      3.8589      3.9119      3.9486      3.9672    
  3.9672      3.9486      3.9119      3.8589      3.7924      3.7168      3.6378      3.5614      3.4307      3.4369    
  3.4544      3.4805      3.5113      3.5425      3.5703      3.5919      3.6054      3.6100      3.6054      3.5919    
  3.5703      3.5425      3.5113      3.4805      3.4544      3.4369      3.4307      3.4369      3.4544      3.4805    
  3.5113      3.5425      3.5703      3.5919      3.6054      3.6100      3.6054      3.5919      3.5703      3.5425    
  3.5113      3.4805      3.4544      3.4369      3.4931      3.5614      3.6378      3.7168      3.7924      3.8589    
  3.9119      3.9486      3.9672      3.9672      3.9486      3.9119      3.8589      3.7924      3.7168      3.6378    
  3.5614      3.4931      3.4369      3.3946      3.3660      3.3493      3.3413      3.3390      3.3396      3.3409    
  3.3418      3.3418      3.3409      3.3396      3.3390      3.3413      3.3493      3.3660      3.3946      3.4369    
  3.6841      3.8170      3.9524      4.0819      4.1998      4.3070      4.3967      4.4574      4.4790      4.4574    
  4.3967      4.3070      4.1998      4.0819      3.9524      3.8170      3.6841      3.5614      3.4544      3.3660    
  3.2967      3.2448      3.2078      3.1825      3.1663      3.1574      3.1546      3.1574      3.1663      3.1825    
  3.2078      3.2448      3.2967      3.3660      3.4544      3.5614      4.0105      4.2086      4.4188      4.6541    
  4.9030      5.1363      5.3186      5.4188      5.4188      5.3186      5.1363      4.9030      4.6541      4.4188    
  4.2086      4.0105      3.8170      3.6378      3.4805      3.3493      3.2448      3.1655      3.1080      3.0689    
  3.0448      3.0333      3.0333      3.0448      3.0689      3.1080      3.1655      3.2448      3.3493      3.4805    
  3.6378      3.8170      4.5037      4.8798      5.3415      5.8556      6.3629      6.7930      7.0813      7.1828    
  7.0813      6.7930      6.3629      5.8556      5.3415      4.8798      4.5037      4.2086      3.9524      3.7168    
  3.5113      3.3413      3.2078      3.1080      3.0377      2.9920      2.9664      2.9582      2.9664      2.9920    
  3.0377      3.1080      3.2078      3.3413      3.5113      3.7168      3.9524      4.2086      5.5166      6.3242    
  7.2455      8.1846      9.0273      9.6630      10.005      10.005      9.6630      9.0273      8.1845      7.2454    
  6.3242      5.5166      4.8798      4.4188      4.0819      3.7924      3.5425      3.3390      3.1825      3.0689    
  2.9920      2.9451      2.9232      2.9232      2.9451      2.9920      3.0689      3.1825      3.3390      3.5425    
  3.7924      4.0819      4.4188      4.8798      7.5913      9.0621      10.602      12.046      13.226      13.998    
  14.267      13.998      13.226      12.046      10.602      9.0621      7.5913      6.3242      5.3415      4.6541    
  4.1998      3.8589      3.5703      3.3396      3.1663      3.0448      2.9664      2.9232      2.9095      2.9232    
  2.9664      3.0448      3.1663      3.3395      3.5703      3.8589      4.1998      4.6541      5.3415      6.3242    
  11.206      13.506      15.743      17.685      19.117      19.877      19.877      19.117      17.685      15.743    
  13.506      11.206      9.0621      7.2454      5.8556      4.9030      4.3070      3.9119      3.5919      3.3409    
  3.1574      3.0333      2.9582      2.9232      2.9232      2.9582      3.0333      3.1574      3.3409      3.5919    
  3.9119      4.3070      4.9030      5.8556      7.2455      9.0621      16.695      19.899      22.817      25.155    
  26.668      27.192      26.668      25.155      22.817      19.899      16.695      13.506      10.602      8.1845    
  6.3629      5.1363      4.3967      3.9486      3.6054      3.3418      3.1546      3.0333      2.9664      2.9451    
  2.9664      3.0333      3.1546      3.3418      3.6054      3.9486      4.3967      5.1363      6.3629      8.1846    
  10.602      13.506      24.202      28.285      31.770      34.316      35.659      35.659      34.316      31.770    
  28.285      24.202      19.899      15.743      12.046      9.0273      6.7930      5.3186      4.4574      3.9672    
  3.6100      3.3418      3.1574      3.0448      2.9920      2.9920      3.0448      3.1574      3.3418      3.6100    
  3.9672      4.4574      5.3187      6.7930      9.0273      12.046      15.743      19.899      33.668      38.508    
  42.357      44.836      45.693      44.836      42.357      38.508      33.668      28.285      22.817      17.685    
  13.226      9.6630      7.0813      5.4188      4.4790      3.9672      3.6054      3.3409      3.1663      3.0689    
  3.0377      3.0689      3.1663      3.3409      3.6054      3.9672      4.4790      5.4188      7.0813      9.6630    
  13.226      17.685      22.817      28.285      44.841      50.220      54.140      56.207      56.207      54.140    
  50.220      44.841      38.508      31.770      25.155      19.117      13.998      10.005      7.1828      5.4188    
  4.4574      3.9486      3.5919      3.3396      3.1825      3.1080      3.1080      3.1825      3.3395      3.5919    
  3.9486      4.4574      5.4188      7.1828      10.005      13.998      19.117      25.155      31.770      38.508    
  57.271      62.878      66.494      67.743      66.494      62.878      57.271      50.220      42.357      34.316    
  26.668      19.877      14.267      10.005      7.0813      5.3186      4.3967      3.9119      3.5703      3.3390    
  3.2078      3.1655      3.2078      3.3390      3.5703      3.9119      4.3967      5.3187      7.0813      10.005    
  14.267      19.877      26.668      34.316      42.357      50.220      70.313      75.742      78.611      78.611    
  75.742      70.313      62.878      54.140      44.836      35.659      27.192      19.877      13.998      9.6630    
  6.7930      5.1363      4.3070      3.8589      3.5425      3.3413      3.2448      3.2448      3.3413      3.5425    
  3.8589      4.3070      5.1363      6.7930      9.6630      13.998      19.877      27.191      35.659      44.836    
  54.140      62.878      83.120      87.889      89.540      87.889      83.120      75.742      66.494      56.207    
  45.693      35.659      26.668      19.117      13.226      9.0273      6.3629      4.9030      4.1998      3.7924    
  3.5113      3.3493      3.2967      3.3493      3.5113      3.7924      4.1998      4.9030      6.3629      9.0273    
  13.226      19.117      26.668      35.659      45.693      56.207      66.494      75.742      94.687      98.287    
  98.287      94.687      87.889      78.611      67.743      56.207      44.836      34.316      25.155      17.685    
  12.046      8.1846      5.8556      4.6541      4.0819      3.7168      3.4805      3.3660      3.3660      3.4805    
  3.7168      4.0819      4.6541      5.8556      8.1846      12.046      17.685      25.155      34.316      44.836    
  56.207      67.743      78.611      87.889      103.96      105.92      103.96      98.287      89.540      78.611    
  66.494      54.140      42.357      31.770      22.817      15.743      10.602      7.2455      5.3415      4.4188    
  3.9524      3.6378      3.4544      3.3946      3.4544      3.6378      3.9524      4.4188      5.3415      7.2455    
  10.602      15.743      22.817      31.770      42.357      54.140      66.494      78.611      89.540      98.287    
  109.97      109.97      105.92      98.287      87.889      75.742      62.878      50.220      38.508      28.285    
  19.899      13.506      9.0621      6.3242      4.8798      4.2086      3.8170      3.5614      3.4369      3.4369    
  3.5614      3.8170      4.2086      4.8798      6.3242      9.0621      13.506      19.899      28.285      38.508    
  50.220      62.878      75.742      87.889      98.287      105.92      109.97      105.92      98.287      87.889    
  75.742      62.878      50.220      38.508      28.285      19.899      13.506      9.0621      6.3242      4.8798    
  4.2086      3.8170      3.5614      3.4369      3.4369      3.5614      3.8170      4.2086      4.8798      6.3242    
  9.0621      13.506      19.899      28.285      38.508      50.220      62.878      75.742      87.889      98.287    
  105.92      109.97      105.92      100.15      91.245      80.119      67.786      55.211      43.215      32.431    
  23.301      16.077      10.814      7.3679      5.4054      4.4523      3.9767      3.6577      3.4716      3.4108    
  3.4716      3.6577      3.9767      4.4523      5.4054      7.3679      10.814      16.077      23.301      32.431    
  43.215      55.211      67.786      80.119      91.244      100.15      105.92      107.92      98.287      91.245    
  81.634      70.379      58.431      46.651      35.740      26.224      18.442      12.545      8.4853      6.0189    
  4.7372      4.1334      3.7588      3.5155      3.3974      3.3974      3.5155      3.7587      4.1334      4.7372    
  6.0189      8.4853      12.545      18.442      26.224      35.740      46.651      58.431      70.379      81.634    
  91.244      98.287      102.02      102.02      87.889      80.119      70.379      59.545      48.464      37.877    
  28.367      20.351      14.065      9.5513      6.6583      5.0549      4.2836      3.8577      3.5646      3.3951    
  3.3400      3.3951      3.5646      3.8577      4.2836      5.0549      6.6583      9.5513      14.065      20.351    
  28.367      37.877      48.464      59.545      70.379      80.119      87.889      92.914      94.654      92.914    
  75.742      67.786      58.431      48.464      38.615      29.501      21.592      15.194      10.433      7.2426    
  5.3731      4.4308      3.9477      3.6140      3.4007      3.2980      3.2980      3.4007      3.6140      3.9477    
  4.4308      5.3731      7.2426      10.433      15.194      21.592      29.501      38.615      48.464      58.431    
  67.786      75.742      81.552      84.622      84.622      81.552      62.878      55.211      46.651      37.877    
  29.501      22.022      15.797      11.015      7.6888      5.6470      4.5656      4.0231      3.6590      3.4108    
  3.2692      3.2235      3.2692      3.4108      3.6590      4.0231      4.5656      5.6470      7.6888      11.015    
  15.797      22.022      29.501      37.877      46.651      55.211      62.878      68.971      72.899      74.256    
  72.899      68.971      50.220      43.215      35.740      28.367      21.592      15.797      11.219      7.9304    
  5.8327      4.6707      4.0795      3.6958      3.4219      3.2504      3.1688      3.1688      3.2504      3.4219    
  3.6958      4.0795      4.6707      5.8327      7.9304      11.219      15.797      21.592      28.367      35.740    
  43.215      50.220      56.160      60.483      62.763      62.763      60.483      56.160      38.508      32.431    
  26.224      20.351      15.194      11.015      7.9304      5.8984      4.7285      4.1151      3.7216      3.4316    
  3.2389      3.1308      3.0962      3.1308      3.2389      3.4316      3.7216      4.1151      4.7285      5.8984    
  7.9304      11.015      15.194      20.351      26.224      32.431      38.508      43.951      48.268      51.046    
  52.005      51.046      48.268      43.951      28.285      23.301      18.442      14.065      10.433      7.6888    
  5.8327      4.7285      4.1274      3.7348      3.4380      3.2324      3.1061      3.0468      3.0468      3.1061    
  3.2324      3.4380      3.7348      4.1273      4.7285      5.8327      7.6888      10.433      14.065      18.442    
  23.301      28.285      32.983      36.975      39.881      41.413      41.413      39.881      36.975      32.983    
  19.899      16.077      12.545      9.5513      7.2426      5.6470      4.6707      4.1151      3.7348      3.4403    
  3.2295      3.0924      3.0165      2.9924      3.0165      3.0924      3.2295      3.4403      3.7348      4.1151    
  4.6707      5.6470      7.2425      9.5513      12.545      16.077      19.899      23.699      27.132      29.869    
  31.633      32.243      31.633      29.869      27.132      23.699      13.506      10.814      8.4853      6.6583    
  5.3731      4.5656      4.0795      3.7216      3.4380      3.2295      3.0880      3.0022      2.9623      2.9623    
  3.0022      3.0880      3.2295      3.4380      3.7216      4.0795      4.5656      5.3731      6.6583      8.4853    
  10.814      13.506      16.348      19.079      21.427      23.149      24.060      24.060      23.149      21.427    
  19.079      16.348      9.0621      7.3679      6.0189      5.0549      4.4308      4.0231      3.6958      3.4316    
  3.2324      3.0924      3.0022      2.9526      2.9369      2.9526      3.0022      3.0924      3.2324      3.4316    
  3.6958      4.0231      4.4308      5.0549      6.0188      7.3679      9.0621      10.984      12.961      14.789    
  16.269      17.232      17.566      17.232      16.269      14.789      12.961      10.984      6.3242      5.4054    
  4.7372      4.2836      3.9477      3.6590      3.4219      3.2389      3.1061      3.0165      2.9623      2.9369    
  2.9369      2.9623      3.0165      3.1061      3.2389      3.4220      3.6590      3.9478      4.2836      4.7372    
  5.4054      6.3242      7.4624      8.7300      9.9972      11.118      11.954      12.402      12.402      11.954    
  11.118      9.9972      8.7300      7.4624      4.8798      4.4523      4.1334      3.8577      3.6140      3.4108    
  3.2504      3.1308      3.0468      2.9924      2.9623      2.9526      2.9623      2.9924      3.0468      3.1308    
  3.2504      3.4108      3.6140      3.8577      4.1334      4.4523      4.8798      5.4489      6.1419      6.8982    
  7.6299      8.2412      8.6470      8.7891      8.6470      8.2412      7.6300      6.8982      6.1419      5.4489    
  4.2086      3.9767      3.7588      3.5646      3.4007      3.2692      3.1688      3.0962      3.0468      3.0165    
  3.0022      3.0022      3.0165      3.0468      3.0961      3.1688      3.2692      3.4007      3.5646      3.7588    
  3.9767      4.2086      4.4686      4.7870      5.1607      5.5569      5.9245      6.2083      6.3629      6.3629    
  6.2083      5.9245      5.5569      5.1607      4.7870      4.4686      3.8170      3.6577      3.5155      3.3951    
  3.2980      3.2235      3.1688      3.1308      3.1061      3.0924      3.0880      3.0924      3.1061      3.1308    
  3.1688      3.2235      3.2980      3.3951      3.5155      3.6577      3.8170      3.9856      4.1539      4.3232    
  4.5012      4.6779      4.8310      4.9355      4.9726      4.9355      4.8310      4.6779      4.5012      4.3232    
  4.1539      3.9856      3.5614      3.4716      3.3974      3.3400      3.2980      3.2692      3.2504      3.2389    
  3.2324      3.2295      3.2295      3.2324      3.2389      3.2504      3.2692      3.2980      3.3400      3.3974    
  3.4716      3.5614      3.6636      3.7727      3.8815      3.9827      4.0701      4.1417      4.1947      4.2233    
  4.2233      4.1947      4.1417      4.0701      3.9827      3.8814      3.7726      3.6636      3.4369      3.4108    
  3.3974      3.3951      3.4007      3.4108      3.4219      3.4316      3.4380      3.4403      3.4380      3.4316    
  3.4220      3.4108      3.4007      3.3951      3.3974      3.4108      3.4369      3.4754      3.5243      3.5796    
  3.6362      3.6891      3.7339      3.7677      3.7884      3.7954      3.7884      3.7676      3.7339      3.6890    
  3.6361      3.5795      3.5243      3.4755      3.4369      3.4716      3.5155      3.5646      3.6140      3.6590    
  3.6958      3.7216      3.7348      3.7348      3.7216      3.6958      3.6590      3.6140      3.5646      3.5155    
  3.4716      3.4369      3.4140      3.4035      3.4042      3.4132      3.4270      3.4420      3.4553      3.4651    
  3.4702      3.4702      3.4651      3.4553      3.4420      3.4270      3.4132      3.4042      3.4035      3.4140    
  3.5614      3.6577      3.7587      3.8577      3.9477      4.0231      4.0795      4.1151      4.1273      4.1151    
  4.0795      4.0231      3.9478      3.8577      3.7588      3.6577      3.5614      3.4754      3.4035      3.3471    
  3.3056      3.2767      3.2578      3.2459      3.2389      3.2352      3.2341      3.2352      3.2389      3.2459    
  3.2578      3.2767      3.3056      3.3471      3.4036      3.4755      3.8170      3.9767      4.1334      4.2836    
  4.4308      4.5656      4.6707      4.7285      4.7285      4.6707      4.5656      4.4308      4.2836      4.1334    
  3.9767      3.8170      3.6636      3.5243      3.4042      3.3056      3.2281      3.1698      3.1277      3.0991    
  3.0813      3.0729      3.0729      3.0813      3.0991      3.1277      3.1698      3.2281      3.3056      3.4042    
  3.5243      3.6636      4.2086      4.4523      4.7372      5.0549      5.3731      5.6470      5.8327      5.8984    
  5.8327      5.6470      5.3731      5.0549      4.7372      4.4523      4.2086      3.9856      3.7727      3.5796    
  3.4132      3.2767      3.1698      3.0898      3.0331      2.9958      2.9748      2.9680      2.9748      2.9958    
  3.0331      3.0898      3.1698      3.2767      3.4132      3.5795      3.7726      3.9856      4.8798      5.4054    
  6.0189      6.6583      7.2426      7.6888      7.9304      7.9304      7.6888      7.2425      6.6583      6.0188    
  5.4054      4.8798      4.4686      4.1539      3.8815      3.6362      3.4270      3.2578      3.1277      3.0331    
  2.9685      2.9289      2.9102      2.9102      2.9290      2.9685      3.0331      3.1277      3.2578      3.4270    
  3.6361      3.8814      4.1539      4.4686      6.3242      7.3679      8.4853      9.5513      10.433      11.015    
  11.219      11.015      10.433      9.5513      8.4853      7.3679      6.3242      5.4489      4.7870      4.3232    
  3.9827      3.6891      3.4420      3.2459      3.0991      2.9958      2.9289      2.8919      2.8801      2.8919    
  2.9289      2.9958      3.0991      3.2459      3.4420      3.6890      3.9827      4.3232      4.7870      5.4489    
  9.0621      10.814      12.545      14.065      15.194      15.797      15.797      15.194      14.065      12.545    
  10.814      9.0621      7.4624      6.1419      5.1607      4.5012      4.0701      3.7339      3.4553      3.2389    
  3.0813      2.9748      2.9102      2.8801      2.8801      2.9102      2.9748      3.0813      3.2389      3.4553    
  3.7339      4.0701      4.5012      5.1607      6.1419      7.4624      13.506      16.077      18.442      20.351    
  21.592      22.022      21.592      20.351      18.442      16.077      13.506      10.984      8.7300      6.8982    
  5.5569      4.6779      4.1417      3.7677      3.4651      3.2352      3.0729      2.9680      2.9102      2.8919    
  2.9102      2.9680      3.0729      3.2352      3.4651      3.7676      4.1417      4.6779      5.5570      6.8982    
  8.7300      10.984      19.899      23.301      26.224      28.367      29.501      29.501      28.367      26.224    
  23.301      19.899      16.348      12.961      9.9972      7.6299      5.9245      4.8310      4.1947      3.7884    
  3.4702      3.2341      3.0729      2.9748      2.9290      2.9289      2.9748      3.0729      3.2341      3.4702    
  3.7884      4.1947      4.8310      5.9245      7.6300      9.9972      12.961      16.348      28.285      32.431    
  35.740      37.877      38.615      37.877      35.740      32.431      28.285      23.699      19.079      14.789    
  11.118      8.2412      6.2083      4.9355      4.2233      3.7954      3.4702      3.2352      3.0813      2.9958    
  2.9685      2.9958      3.0813      3.2352      3.4702      3.7954      4.2233      4.9355      6.2083      8.2412    
  11.118      14.789      19.079      23.699      38.508      43.215      46.651      48.464      48.464      46.651    
  43.215      38.508      32.983      27.132      21.427      16.269      11.954      8.6470      6.3629      4.9726    
  4.2233      3.7884      3.4651      3.2389      3.0991      3.0331      3.0331      3.0991      3.2389      3.4651    
  3.7884      4.2233      4.9726      6.3629      8.6470      11.954      16.269      21.427      27.132      32.983    
  50.220      55.211      58.431      59.545      58.431      55.211      50.220      43.951      36.975      29.869    
  23.149      17.232      12.402      8.7891      6.3629      4.9355      4.1947      3.7676      3.4553      3.2459    
  3.1277      3.0898      3.1277      3.2459      3.4553      3.7676      4.1947      4.9355      6.3629      8.7891    
  12.402      17.232      23.149      29.869      36.975      43.951      62.878      67.786      70.379      70.379    
  67.786      62.878      56.160      48.268      39.881      31.633      24.060      17.566      12.402      8.6470    
  6.2083      4.8310      4.1417      3.7339      3.4420      3.2578      3.1698      3.1698      3.2578      3.4420    
  3.7339      4.1417      4.8310      6.2083      8.6470      12.402      17.566      24.060      31.633      39.881    
  48.268      56.160      75.742      80.119      81.634      80.119      75.742      68.971      60.483      51.046    
  41.413      32.243      24.060      17.232      11.954      8.2412      5.9245      4.6779      4.0701      3.6890    
  3.4270      3.2767      3.2281      3.2767      3.4270      3.6890      4.0701      4.6779      5.9245      8.2412    
  11.954      17.232      24.060      32.243      41.413      51.046      60.483      68.971      87.889      91.244    