Co-fcc                                  
   1.00000000000000     
     0.000000    1.806896    1.806896
     1.806896    0.000000    1.806896
     1.806896    1.806896    0.000000
   Co
     1
Direct
  0.000000  0.000000  0.000000
 
   36   36   36
 0.11205381248E+03 0.10996875549E+03 0.10395595852E+03 0.94687305363E+02 0.83119573721E+02
 0.70313045420E+02 0.57271494403E+02 0.44840620077E+02 0.33668130851E+02 0.24201786916E+02
 0.16695368605E+02 0.11206435249E+02 0.75913246160E+01 0.55165821888E+01 0.45036767653E+01
 0.40104764074E+01 0.36841306136E+01 0.34931284466E+01 0.34307103003E+01 0.34931284466E+01
 0.36841306136E+01 0.40104764074E+01 0.45036767653E+01 0.55165821888E+01 0.75913246160E+01
 0.11206435249E+02 0.16695368605E+02 0.24201786916E+02 0.33668130851E+02 0.44840620077E+02
 0.57271494403E+02 0.70313045420E+02 0.83119573721E+02 0.94687305363E+02 0.10395595852E+03
 0.10996875549E+03 0.10996875549E+03 0.10592079079E+03 0.98287096669E+02 0.87889423991E+02
 0.75742086782E+02 0.62878454821E+02 0.50220000770E+02 0.38507842917E+02 0.28284836744E+02
 0.19899321578E+02 0.13506415207E+02 0.90621148069E+01 0.63242343128E+01 0.48797863784E+01
 0.42085664681E+01 0.38169906580E+01 0.35614236085E+01 0.34368862021E+01 0.34368856298E+01
 0.35614219451E+01 0.38169881026E+01 0.42085634286E+01 0.48797834893E+01 0.63242323148E+01
 0.90621142885E+01 0.13506416276E+02 0.19899323620E+02 0.28284838423E+02 0.38507842484E+02
 0.50219996649E+02 0.62878446243E+02 0.75742074281E+02 0.87889409468E+02 0.98287082992E+02
 0.10592078101E+03 0.10996875194E+03 0.10395595852E+03 0.98287096669E+02 0.89540488323E+02
 0.78610624492E+02 0.66493662862E+02 0.54139610870E+02 0.42356667278E+02 0.31770479935E+02
 0.22817124447E+02 0.15743492666E+02 0.10601935103E+02 0.72454588830E+01 0.53414769538E+01
 0.44188166525E+01 0.39524135769E+01 0.36378057236E+01 0.34544150864E+01 0.33945986675E+01
 0.34544132672E+01 0.36378022403E+01 0.39524088834E+01 0.44188116482E+01 0.53414729427E+01
 0.72454572256E+01 0.10601936619E+02 0.15743497012E+02 0.22817129809E+02 0.31770483278E+02
 0.42356665208E+02 0.54139600876E+02 0.66493644477E+02 0.78610599910E+02 0.89540462112E+02
 0.98287074612E+02 0.10395594592E+03 0.10592078101E+03 0.94687305363E+02 0.87889423991E+02
 0.78610624492E+02 0.67743120960E+02 0.56206970538E+02 0.44836405370E+02 0.34315769536E+02
 0.25155376781E+02 0.17684747233E+02 0.12045756935E+02 0.81845570008E+01 0.58556400017E+01
 0.46540925204E+01 0.40818866426E+01 0.37168068988E+01 0.34805284033E+01 0.33660452930E+01
 0.33660444314E+01 0.34805257982E+01 0.37168026473E+01 0.40818813170E+01 0.46540874167E+01
 0.58556369902E+01 0.81845578688E+01 0.12045762428E+02 0.17684756228E+02 0.25155386073E+02
 0.34315774528E+02 0.44836401561E+02 0.56206955329E+02 0.67743095060E+02 0.78610592280E+02
 0.87889392556E+02 0.94687282464E+02 0.98287074612E+02 0.98287082992E+02 0.83119573721E+02
 0.75742086782E+02 0.66493662862E+02 0.56206970538E+02 0.45692888021E+02 0.35659247722E+02
 0.26668096620E+02 0.19116751716E+02 0.13225718551E+02 0.90273131517E+01 0.63628658045E+01
 0.49029545662E+01 0.41997818261E+01 0.37923786043E+01 0.35113056065E+01 0.33492786326E+01
 0.32967123904E+01 0.33492778182E+01 0.35113035545E+01 0.37923749820E+01 0.41997770744E+01
 0.49029502599E+01 0.63628643240E+01 0.90273166594E+01 0.13225727679E+02 0.19116764622E+02
 0.26668108996E+02 0.35659253974E+02 0.45692883305E+02 0.56206952878E+02 0.66493634464E+02
 0.75742053859E+02 0.83119544773E+02 0.87889392556E+02 0.89540462112E+02 0.87889409468E+02
 0.70313045420E+02 0.62878454821E+02 0.54139610870E+02 0.44836405370E+02 0.35659247722E+02
 0.27191496964E+02 0.19876745695E+02 0.13998284101E+02 0.96629878859E+01 0.67929727828E+01
 0.51363424189E+01 0.43069616668E+01 0.38588985397E+01 0.35424972603E+01 0.33413348825E+01
 0.32448488380E+01 0.32448492053E+01 0.33413354113E+01 0.35424966483E+01 0.38588957626E+01
 0.43069569832E+01 0.51363377342E+01 0.67929710418E+01 0.96629916688E+01 0.13998294054E+02
 0.19876759608E+02 0.27191510071E+02 0.35659254288E+02 0.44836400996E+02 0.54139594558E+02
 0.62878429881E+02 0.70313018685E+02 0.75742053859E+02 0.78610592280E+02 0.78610599910E+02
 0.75742074281E+02 0.57271494403E+02 0.50220000770E+02 0.42356667278E+02 0.34315769536E+02
 0.26668096620E+02 0.19876745695E+02 0.14267106591E+02 0.10004646405E+02 0.70813130006E+01
 0.53186547826E+01 0.43967423511E+01 0.39119379846E+01 0.35703006429E+01 0.33390197720E+01
 0.32077616679E+01 0.31655014425E+01 0.32077634777E+01 0.33390218290E+01 0.35703007467E+01
 0.39119346594E+01 0.43967359167E+01 0.53186475246E+01 0.70813082670E+01 0.10004647010E+02
 0.14267113265E+02 0.19876756381E+02 0.26668107029E+02 0.34315774826E+02 0.42356664160E+02
 0.50219989106E+02 0.57271477540E+02 0.62878429881E+02 0.66493634464E+02 0.67743095060E+02
 0.66493644477E+02 0.62878446243E+02 0.44840620077E+02 0.38507842917E+02 0.31770479935E+02
 0.25155376781E+02 0.19116751716E+02 0.13998284101E+02 0.10004646405E+02 0.71828021425E+01
 0.54187777788E+01 0.44574471022E+01 0.39485676168E+01 0.35918589701E+01 0.33395487716E+01
 0.31824717003E+01 0.31080465130E+01 0.31080477475E+01 0.31824745262E+01 0.33395509951E+01
 0.35918581952E+01 0.39485624902E+01 0.44574380934E+01 0.54187671032E+01 0.71827928428E+01
 0.10004641017E+02 0.13998283507E+02 0.19116754750E+02 0.25155380762E+02 0.31770481895E+02
 0.38507840982E+02 0.44840614333E+02 0.50219989106E+02 0.54139594558E+02 0.56206952878E+02
 0.56206955329E+02 0.54139600876E+02 0.50219996649E+02 0.33668130851E+02 0.28284836744E+02
 0.22817124447E+02 0.17684747233E+02 0.13225718551E+02 0.96629878859E+01 0.70813130006E+01
 0.54187777788E+01 0.44789855253E+01 0.39672011698E+01 0.36053834304E+01 0.33408959811E+01
 0.31663439363E+01 0.30688781186E+01 0.30377498322E+01 0.30688798063E+01 0.31663462207E+01
 0.33408971086E+01 0.36053816661E+01 0.39671954669E+01 0.44789759151E+01 0.54187653597E+01
 0.70812995324E+01 0.96629752084E+01 0.13225708022E+02 0.17684739432E+02 0.22817119201E+02
 0.28284833407E+02 0.33668128690E+02 0.38507840982E+02 0.42356664160E+02 0.44836400996E+02
 0.45692883305E+02 0.44836401561E+02 0.42356665208E+02 0.38507842484E+02 0.24201786916E+02
 0.19899321578E+02 0.15743492666E+02 0.12045756935E+02 0.90273131517E+01 0.67929727828E+01
 0.53186547826E+01 0.44574471022E+01 0.39672011698E+01 0.36099781611E+01 0.33418418633E+01
 0.31574333267E+01 0.30447587272E+01 0.29919563402E+01 0.29919565885E+01 0.30447594517E+01
 0.31574343805E+01 0.33418427809E+01 0.36099780126E+01 0.39671986262E+01 0.44574407612E+01
 0.53186437018E+01 0.67929569747E+01 0.90272938465E+01 0.12045736402E+02 0.15743473625E+02
 0.19899306402E+02 0.24201776889E+02 0.28284833407E+02 0.31770481895E+02 0.34315774826E+02
 0.35659254288E+02 0.35659253974E+02 0.34315774528E+02 0.31770483278E+02 0.28284838423E+02
 0.16695368605E+02 0.13506415207E+02 0.10601935103E+02 0.81845570008E+01 0.63628658045E+01
 0.51363424189E+01 0.43967423511E+01 0.39485676168E+01 0.36053834304E+01 0.33418418633E+01
 0.31545885521E+01 0.30333183038E+01 0.29663965037E+01 0.29451456183E+01 0.29663957753E+01
 0.30333178388E+01 0.31545896699E+01 0.33418452320E+01 0.36053882820E+01 0.39485716273E+01
 0.43967422873E+01 0.51363353711E+01 0.63628504189E+01 0.81845342103E+01 0.10601907978E+02
 0.13506387951E+02 0.16695345154E+02 0.19899306402E+02 0.22817119201E+02 0.25155380762E+02
 0.26668107029E+02 0.27191510071E+02 0.26668108996E+02 0.25155386073E+02 0.22817129809E+02
 0.19899323620E+02 0.11206435249E+02 0.90621148069E+01 0.72454588830E+01 0.58556400017E+01
 0.49029545662E+01 0.43069616668E+01 0.39119379846E+01 0.35918589701E+01 0.33408959811E+01
 0.31574333267E+01 0.30333183038E+01 0.29582106311E+01 0.29231884810E+01 0.29231875977E+01
 0.29582088347E+01 0.30333177068E+01 0.31574361339E+01 0.33409031848E+01 0.35918694814E+01
 0.39119486797E+01 0.43069683085E+01 0.49029532960E+01 0.58556287396E+01 0.72454380722E+01
 0.90620872694E+01 0.11206405186E+02 0.13506387951E+02 0.15743473625E+02 0.17684739432E+02
 0.19116754750E+02 0.19876756381E+02 0.19876759608E+02 0.19116764622E+02 0.17684756228E+02
 0.15743497012E+02 0.13506416276E+02 0.75913246160E+01 0.63242343128E+01 0.53414769538E+01
 0.46540925204E+01 0.41997818261E+01 0.38588985397E+01 0.35703006429E+01 0.33395487716E+01
 0.31663439363E+01 0.30447587272E+01 0.29663965037E+01 0.29231884810E+01 0.29094616295E+01
 0.29231865659E+01 0.29663941628E+01 0.30447582957E+01 0.31663475548E+01 0.33395573740E+01
 0.35703133388E+01 0.38589126684E+01 0.41997936295E+01 0.46540982056E+01 0.53414738127E+01
 0.63242214499E+01 0.75913032109E+01 0.90620872694E+01 0.10601907978E+02 0.12045736402E+02
 0.13225708022E+02 0.13998283507E+02 0.14267113265E+02 0.13998294054E+02 0.13225727679E+02
 0.12045762428E+02 0.10601936619E+02 0.90621142885E+01 0.55165821888E+01 0.48797863784E+01
 0.44188166525E+01 0.40818866426E+01 0.37923786043E+01 0.35424972603E+01 0.33390197720E+01
 0.31824717003E+01 0.30688781186E+01 0.29919563402E+01 0.29451456183E+01 0.29231875977E+01
 0.29231865659E+01 0.29451429107E+01 0.29919530495E+01 0.30688758542E+01 0.31824722186E+01
 0.33390244856E+01 0.35425066745E+01 0.37923918768E+01 0.40819014794E+01 0.44188296154E+01
 0.48797937352E+01 0.55165809908E+01 0.63242214499E+01 0.72454380722E+01 0.81845342103E+01
 0.90272938465E+01 0.96629752084E+01 0.10004641017E+02 0.10004647010E+02 0.96629916688E+01
 0.90273166594E+01 0.81845578688E+01 0.72454572256E+01 0.63242323148E+01 0.45036767653E+01
 0.42085664681E+01 0.39524135769E+01 0.37168068988E+01 0.35113056065E+01 0.33413348825E+01
 0.32077616679E+01 0.31080465130E+01 0.30377498322E+01 0.29919565885E+01 0.29663957753E+01
 0.29582088347E+01 0.29663941628E+01 0.29919530495E+01 0.30377442113E+01 0.31080394553E+01
 0.32077549754E+01 0.33413312442E+01 0.35113076895E+01 0.37168160954E+01 0.39524290634E+01
 0.42085850022E+01 0.45036935243E+01 0.48797937352E+01 0.53414738127E+01 0.58556287396E+01
 0.63628504189E+01 0.67929569747E+01 0.70812995324E+01 0.71827928428E+01 0.70813082670E+01
 0.67929710418E+01 0.63628643240E+01 0.58556369902E+01 0.53414729427E+01 0.48797834893E+01
 0.40104764074E+01 0.38169906580E+01 0.36378057236E+01 0.34805284033E+01 0.33492786326E+01
 0.32448488380E+01 0.31655014425E+01 0.31080477475E+01 0.30688798063E+01 0.30447594517E+01
 0.30333178388E+01 0.30333177068E+01 0.30447582957E+01 0.30688758542E+01 0.31080394553E+01
 0.31654888255E+01 0.32448341440E+01 0.33492659267E+01 0.34805221655E+01 0.36378090058E+01
 0.38170036764E+01 0.40104962459E+01 0.42085850022E+01 0.44188296154E+01 0.46540982056E+01
 0.49029532960E+01 0.51363353711E+01 0.53186437018E+01 0.54187653597E+01 0.54187671032E+01
 0.53186475246E+01 0.51363377342E+01 0.49029502599E+01 0.46540874167E+01 0.44188116482E+01
 0.42085634286E+01 0.36841306136E+01 0.35614236085E+01 0.34544150864E+01 0.33660452930E+01
 0.32967123904E+01 0.32448492053E+01 0.32077634777E+01 0.31824745262E+01 0.31663462207E+01
 0.31574343805E+01 0.31545896699E+01 0.31574361339E+01 0.31663475548E+01 0.31824722186E+01
 0.32077549754E+01 0.32448341440E+01 0.32966932004E+01 0.33660265632E+01 0.34544019784E+01
 0.35614199552E+01 0.36841375271E+01 0.38170036764E+01 0.39524290634E+01 0.40819014794E+01
 0.41997936295E+01 0.43069683085E+01 0.43967422873E+01 0.44574407612E+01 0.44789759151E+01
 0.44574380934E+01 0.43967359167E+01 0.43069569832E+01 0.41997770744E+01 0.40818813170E+01
 0.39524088834E+01 0.38169881026E+01 0.34931284466E+01 0.34368862021E+01 0.33945986675E+01
 0.33660444314E+01 0.33492778182E+01 0.33413354113E+01 0.33390218290E+01 0.33395509951E+01
 0.33408971086E+01 0.33418427809E+01 0.33418452320E+01 0.33409031848E+01 0.33395573740E+01
 0.33390244856E+01 0.33413312442E+01 0.33492659267E+01 0.33660265632E+01 0.33945786749E+01
 0.34368687756E+01 0.34931176276E+01 0.35614199552E+01 0.36378090058E+01 0.37168160954E+01
 0.37923918768E+01 0.38589126684E+01 0.39119486797E+01 0.39485716273E+01 0.39671986262E+01
 0.39671954669E+01 0.39485624902E+01 0.39119346594E+01 0.38588957626E+01 0.37923749820E+01
 0.37168026473E+01 0.36378022403E+01 0.35614219451E+01 0.34307103003E+01 0.34368856298E+01
 0.34544132672E+01 0.34805257982E+01 0.35113035545E+01 0.35424966483E+01 0.35703007467E+01
 0.35918581952E+01 0.36053816661E+01 0.36099780126E+01 0.36053882820E+01 0.35918694814E+01
 0.35703133388E+01 0.35425066745E+01 0.35113076895E+01 0.34805221655E+01 0.34544019784E+01
 0.34368687756E+01 0.34306914158E+01 0.34368687756E+01 0.34544019784E+01 0.34805221655E+01
 0.35113076895E+01 0.35425066745E+01 0.35703133388E+01 0.35918694814E+01 0.36053882820E+01
 0.36099780126E+01 0.36053816661E+01 0.35918581952E+01 0.35703007467E+01 0.35424966483E+01
 0.35113035545E+01 0.34805257982E+01 0.34544132672E+01 0.34368856298E+01 0.34931284466E+01
 0.35614219451E+01 0.36378022403E+01 0.37168026473E+01 0.37923749820E+01 0.38588957626E+01
 0.39119346594E+01 0.39485624902E+01 0.39671954669E+01 0.39671986262E+01 0.39485716273E+01
 0.39119486797E+01 0.38589126684E+01 0.37923918768E+01 0.37168160954E+01 0.36378090058E+01
 0.35614199552E+01 0.34931176276E+01 0.34368687756E+01 0.33945786749E+01 0.33660265632E+01
 0.33492659267E+01 0.33413312442E+01 0.33390244856E+01 0.33395573740E+01 0.33409031848E+01
 0.33418452320E+01 0.33418427809E+01 0.33408971086E+01 0.33395509951E+01 0.33390218290E+01
 0.33413354113E+01 0.33492778182E+01 0.33660444314E+01 0.33945986675E+01 0.34368862021E+01
 0.36841306136E+01 0.38169881026E+01 0.39524088834E+01 0.40818813170E+01 0.41997770744E+01
 0.43069569832E+01 0.43967359167E+01 0.44574380934E+01 0.44789759151E+01 0.44574407612E+01
 0.43967422873E+01 0.43069683085E+01 0.41997936295E+01 0.40819014794E+01 0.39524290634E+01
 0.38170036764E+01 0.36841375271E+01 0.35614199552E+01 0.34544019784E+01 0.33660265632E+01
 0.32966932004E+01 0.32448341440E+01 0.32077549754E+01 0.31824722186E+01 0.31663475548E+01
 0.31574361339E+01 0.31545896699E+01 0.31574343805E+01 0.31663462207E+01 0.31824745262E+01
 0.32077634777E+01 0.32448492053E+01 0.32967123904E+01 0.33660452930E+01 0.34544150864E+01
 0.35614236085E+01 0.40104764074E+01 0.42085634286E+01 0.44188116482E+01 0.46540874167E+01
 0.49029502599E+01 0.51363377342E+01 0.53186475246E+01 0.54187671032E+01 0.54187653597E+01
 0.53186437018E+01 0.51363353711E+01 0.49029532960E+01 0.46540982056E+01 0.44188296154E+01
 0.42085850022E+01 0.40104962459E+01 0.38170036764E+01 0.36378090058E+01 0.34805221655E+01
 0.33492659267E+01 0.32448341440E+01 0.31654888255E+01 0.31080394553E+01 0.30688758542E+01
 0.30447582957E+01 0.30333177068E+01 0.30333178388E+01 0.30447594517E+01 0.30688798063E+01
 0.31080477475E+01 0.31655014425E+01 0.32448488380E+01 0.33492786326E+01 0.34805284033E+01
 0.36378057236E+01 0.38169906580E+01 0.45036767653E+01 0.48797834893E+01 0.53414729427E+01
 0.58556369902E+01 0.63628643240E+01 0.67929710418E+01 0.70813082670E+01 0.71827928428E+01
 0.70812995324E+01 0.67929569747E+01 0.63628504189E+01 0.58556287396E+01 0.53414738127E+01
 0.48797937352E+01 0.45036935243E+01 0.42085850022E+01 0.39524290634E+01 0.37168160954E+01
 0.35113076895E+01 0.33413312442E+01 0.32077549754E+01 0.31080394553E+01 0.30377442113E+01
 0.29919530495E+01 0.29663941628E+01 0.29582088347E+01 0.29663957753E+01 0.29919565885E+01
 0.30377498322E+01 0.31080465130E+01 0.32077616679E+01 0.33413348825E+01 0.35113056065E+01
 0.37168068988E+01 0.39524135769E+01 0.42085664681E+01 0.55165821888E+01 0.63242323148E+01
 0.72454572256E+01 0.81845578688E+01 0.90273166594E+01 0.96629916688E+01 0.10004647010E+02
 0.10004641017E+02 0.96629752084E+01 0.90272938465E+01 0.81845342103E+01 0.72454380722E+01
 0.63242214499E+01 0.55165809908E+01 0.48797937352E+01 0.44188296154E+01 0.40819014794E+01
 0.37923918768E+01 0.35425066745E+01 0.33390244856E+01 0.31824722186E+01 0.30688758542E+01
 0.29919530495E+01 0.29451429107E+01 0.29231865659E+01 0.29231875977E+01 0.29451456183E+01
 0.29919563402E+01 0.30688781186E+01 0.31824717003E+01 0.33390197720E+01 0.35424972603E+01
 0.37923786043E+01 0.40818866426E+01 0.44188166525E+01 0.48797863784E+01 0.75913246160E+01
 0.90621142885E+01 0.10601936619E+02 0.12045762428E+02 0.13225727679E+02 0.13998294054E+02
 0.14267113265E+02 0.13998283507E+02 0.13225708022E+02 0.12045736402E+02 0.10601907978E+02
 0.90620872694E+01 0.75913032109E+01 0.63242214499E+01 0.53414738127E+01 0.46540982056E+01
 0.41997936295E+01 0.38589126684E+01 0.35703133388E+01 0.33395573740E+01 0.31663475548E+01
 0.30447582957E+01 0.29663941628E+01 0.29231865659E+01 0.29094616295E+01 0.29231884810E+01
 0.29663965037E+01 0.30447587272E+01 0.31663439363E+01 0.33395487716E+01 0.35703006429E+01
 0.38588985397E+01 0.41997818261E+01 0.46540925204E+01 0.53414769538E+01 0.63242343128E+01
 0.11206435249E+02 0.13506416276E+02 0.15743497012E+02 0.17684756228E+02 0.19116764622E+02
 0.19876759608E+02 0.19876756381E+02 0.19116754750E+02 0.17684739432E+02 0.15743473625E+02
 0.13506387951E+02 0.11206405186E+02 0.90620872694E+01 0.72454380722E+01 0.58556287396E+01
 0.49029532960E+01 0.43069683085E+01 0.39119486797E+01 0.35918694814E+01 0.33409031848E+01
 0.31574361339E+01 0.30333177068E+01 0.29582088347E+01 0.29231875977E+01 0.29231884810E+01
 0.29582106311E+01 0.30333183038E+01 0.31574333267E+01 0.33408959811E+01 0.35918589701E+01
 0.39119379846E+01 0.43069616668E+01 0.49029545662E+01 0.58556400017E+01 0.72454588830E+01
 0.90621148069E+01 0.16695368605E+02 0.19899323620E+02 0.22817129809E+02 0.25155386073E+02
 0.26668108996E+02 0.27191510071E+02 0.26668107029E+02 0.25155380762E+02 0.22817119201E+02
 0.19899306402E+02 0.16695345154E+02 0.13506387951E+02 0.10601907978E+02 0.81845342103E+01
 0.63628504189E+01 0.51363353711E+01 0.43967422873E+01 0.39485716273E+01 0.36053882820E+01
 0.33418452320E+01 0.31545896699E+01 0.30333178388E+01 0.29663957753E+01 0.29451456183E+01
 0.29663965037E+01 0.30333183038E+01 0.31545885521E+01 0.33418418633E+01 0.36053834304E+01
 0.39485676168E+01 0.43967423511E+01 0.51363424189E+01 0.63628658045E+01 0.81845570008E+01
 0.10601935103E+02 0.13506415207E+02 0.24201786916E+02 0.28284838423E+02 0.31770483278E+02
 0.34315774528E+02 0.35659253974E+02 0.35659254288E+02 0.34315774826E+02 0.31770481895E+02
 0.28284833407E+02 0.24201776889E+02 0.19899306402E+02 0.15743473625E+02 0.12045736402E+02
 0.90272938465E+01 0.67929569747E+01 0.53186437018E+01 0.44574407612E+01 0.39671986262E+01
 0.36099780126E+01 0.33418427809E+01 0.31574343805E+01 0.30447594517E+01 0.29919565885E+01
 0.29919563402E+01 0.30447587272E+01 0.31574333267E+01 0.33418418633E+01 0.36099781611E+01
 0.39672011698E+01 0.44574471022E+01 0.53186547826E+01 0.67929727828E+01 0.90273131517E+01
 0.12045756935E+02 0.15743492666E+02 0.19899321578E+02 0.33668130851E+02 0.38507842484E+02
 0.42356665208E+02 0.44836401561E+02 0.45692883305E+02 0.44836400996E+02 0.42356664160E+02
 0.38507840982E+02 0.33668128690E+02 0.28284833407E+02 0.22817119201E+02 0.17684739432E+02
 0.13225708022E+02 0.96629752084E+01 0.70812995324E+01 0.54187653597E+01 0.44789759151E+01
 0.39671954669E+01 0.36053816661E+01 0.33408971086E+01 0.31663462207E+01 0.30688798063E+01
 0.30377498322E+01 0.30688781186E+01 0.31663439363E+01 0.33408959811E+01 0.36053834304E+01
 0.39672011698E+01 0.44789855253E+01 0.54187777788E+01 0.70813130006E+01 0.96629878859E+01
 0.13225718551E+02 0.17684747233E+02 0.22817124447E+02 0.28284836744E+02 0.44840620077E+02
 0.50219996649E+02 0.54139600876E+02 0.56206955329E+02 0.56206952878E+02 0.54139594558E+02
 0.50219989106E+02 0.44840614333E+02 0.38507840982E+02 0.31770481895E+02 0.25155380762E+02
 0.19116754750E+02 0.13998283507E+02 0.10004641017E+02 0.71827928428E+01 0.54187671032E+01
 0.44574380934E+01 0.39485624902E+01 0.35918581952E+01 0.33395509951E+01 0.31824745262E+01
 0.31080477475E+01 0.31080465130E+01 0.31824717003E+01 0.33395487716E+01 0.35918589701E+01
 0.39485676168E+01 0.44574471022E+01 0.54187777788E+01 0.71828021425E+01 0.10004646405E+02
 0.13998284101E+02 0.19116751716E+02 0.25155376781E+02 0.31770479935E+02 0.38507842917E+02
 0.57271494403E+02 0.62878446243E+02 0.66493644477E+02 0.67743095060E+02 0.66493634464E+02
 0.62878429881E+02 0.57271477540E+02 0.50219989106E+02 0.42356664160E+02 0.34315774826E+02
 0.26668107029E+02 0.19876756381E+02 0.14267113265E+02 0.10004647010E+02 0.70813082670E+01
 0.53186475246E+01 0.43967359167E+01 0.39119346594E+01 0.35703007467E+01 0.33390218290E+01
 0.32077634777E+01 0.31655014425E+01 0.32077616679E+01 0.33390197720E+01 0.35703006429E+01
 0.39119379846E+01 0.43967423511E+01 0.53186547826E+01 0.70813130006E+01 0.10004646405E+02
 0.14267106591E+02 0.19876745695E+02 0.26668096620E+02 0.34315769536E+02 0.42356667278E+02
 0.50220000770E+02 0.70313045420E+02 0.75742074281E+02 0.78610599910E+02 0.78610592280E+02
 0.75742053859E+02 0.70313018685E+02 0.62878429881E+02 0.54139594558E+02 0.44836400996E+02
 0.35659254288E+02 0.27191510071E+02 0.19876759608E+02 0.13998294054E+02 0.96629916688E+01
 0.67929710418E+01 0.51363377342E+01 0.43069569832E+01 0.38588957626E+01 0.35424966483E+01
 0.33413354113E+01 0.32448492053E+01 0.32448488380E+01 0.33413348825E+01 0.35424972603E+01
 0.38588985397E+01 0.43069616668E+01 0.51363424189E+01 0.67929727828E+01 0.96629878859E+01
 0.13998284101E+02 0.19876745695E+02 0.27191496964E+02 0.35659247722E+02 0.44836405370E+02
 0.54139610870E+02 0.62878454821E+02 0.83119573721E+02 0.87889409468E+02 0.89540462112E+02
 0.87889392556E+02 0.83119544773E+02 0.75742053859E+02 0.66493634464E+02 0.56206952878E+02
 0.45692883305E+02 0.35659253974E+02 0.26668108996E+02 0.19116764622E+02 0.13225727679E+02
 0.90273166594E+01 0.63628643240E+01 0.49029502599E+01 0.41997770744E+01 0.37923749820E+01
 0.35113035545E+01 0.33492778182E+01 0.32967123904E+01 0.33492786326E+01 0.35113056065E+01
 0.37923786043E+01 0.41997818261E+01 0.49029545662E+01 0.63628658045E+01 0.90273131517E+01
 0.13225718551E+02 0.19116751716E+02 0.26668096620E+02 0.35659247722E+02 0.45692888021E+02
 0.56206970538E+02 0.66493662862E+02 0.75742086782E+02 0.94687305363E+02 0.98287082992E+02
 0.98287074612E+02 0.94687282464E+02 0.87889392556E+02 0.78610592280E+02 0.67743095060E+02
 0.56206955329E+02 0.44836401561E+02 0.34315774528E+02 0.25155386073E+02 0.17684756228E+02
 0.12045762428E+02 0.81845578688E+01 0.58556369902E+01 0.46540874167E+01 0.40818813170E+01
 0.37168026473E+01 0.34805257982E+01 0.33660444314E+01 0.33660452930E+01 0.34805284033E+01
 0.37168068988E+01 0.40818866426E+01 0.46540925204E+01 0.58556400017E+01 0.81845570008E+01
 0.12045756935E+02 0.17684747233E+02 0.25155376781E+02 0.34315769536E+02 0.44836405370E+02
 0.56206970538E+02 0.67743120960E+02 0.78610624492E+02 0.87889423991E+02 0.10395595852E+03
 0.10592078101E+03 0.10395594592E+03 0.98287074612E+02 0.89540462112E+02 0.78610599910E+02
 0.66493644477E+02 0.54139600876E+02 0.42356665208E+02 0.31770483278E+02 0.22817129809E+02
 0.15743497012E+02 0.10601936619E+02 0.72454572256E+01 0.53414729427E+01 0.44188116482E+01
 0.39524088834E+01 0.36378022403E+01 0.34544132672E+01 0.33945986675E+01 0.34544150864E+01
 0.36378057236E+01 0.39524135769E+01 0.44188166525E+01 0.53414769538E+01 0.72454588830E+01
 0.10601935103E+02 0.15743492666E+02 0.22817124447E+02 0.31770479935E+02 0.42356667278E+02
 0.54139610870E+02 0.66493662862E+02 0.78610624492E+02 0.89540488323E+02 0.98287096669E+02
 0.10996875549E+03 0.10996875194E+03 0.10592078101E+03 0.98287082992E+02 0.87889409468E+02
 0.75742074281E+02 0.62878446243E+02 0.50219996649E+02 0.38507842484E+02 0.28284838423E+02
 0.19899323620E+02 0.13506416276E+02 0.90621142885E+01 0.63242323148E+01 0.48797834893E+01
 0.42085634286E+01 0.38169881026E+01 0.35614219451E+01 0.34368856298E+01 0.34368862021E+01
 0.35614236085E+01 0.38169906580E+01 0.42085664681E+01 0.48797863784E+01 0.63242343128E+01
 0.90621148069E+01 0.13506415207E+02 0.19899321578E+02 0.28284836744E+02 0.38507842917E+02
 0.50220000770E+02 0.62878454821E+02 0.75742086782E+02 0.87889423991E+02 0.98287096669E+02
 0.10592079079E+03 0.10996875549E+03 0.10592079079E+03 0.98287096669E+02 0.87889423991E+02
 0.75742086782E+02 0.62878454821E+02 0.50220000770E+02 0.38507842917E+02 0.28284836744E+02
 0.19899321578E+02 0.13506415207E+02 0.90621148069E+01 0.63242343128E+01 0.48797863784E+01
 0.42085664681E+01 0.38169906580E+01 0.35614236085E+01 0.34368862021E+01 0.34368856298E+01
 0.35614219451E+01 0.38169881026E+01 0.42085634286E+01 0.48797834893E+01 0.63242323148E+01
 0.90621142885E+01 0.13506416276E+02 0.19899323620E+02 0.28284838423E+02 0.38507842484E+02
 0.50219996649E+02 0.62878446243E+02 0.75742074281E+02 0.87889409468E+02 0.98287082992E+02
 0.10592078101E+03 0.10996875194E+03 0.10592079079E+03 0.10014895481E+03 0.91244505740E+02
 0.80118858886E+02 0.67785930855E+02 0.55211249308E+02 0.43214841128E+02 0.32430685280E+02
 0.23300785046E+02 0.16076599740E+02 0.10813982538E+02 0.73679021556E+01 0.54054206751E+01
 0.44522570624E+01 0.39766877157E+01 0.36577379297E+01 0.34715804079E+01 0.34108247735E+01
 0.34715786060E+01 0.36577344828E+01 0.39766830668E+01 0.44522520668E+01 0.54054165509E+01
 0.73679001408E+01 0.10813983322E+02 0.16076602887E+02 0.23300788724E+02 0.32430686530E+02
 0.43214836722E+02 0.55211236947E+02 0.67785910284E+02 0.80118832465E+02 0.91244478132E+02
 0.10014893183E+03 0.10592077773E+03 0.10792143739E+03 0.98287096669E+02 0.91244505740E+02
 0.81633649366E+02 0.70378958852E+02 0.58431367064E+02 0.46650556975E+02 0.35739892788E+02
 0.26223582724E+02 0.18441850806E+02 0.12545097165E+02 0.84853410876E+01 0.60188531466E+01
 0.47371862076E+01 0.41334171233E+01 0.37587501422E+01 0.35155138191E+01 0.33974497055E+01
 0.33974488706E+01 0.35155113196E+01 0.37587461232E+01 0.41334121531E+01 0.47371814525E+01
 0.60188501913E+01 0.84853413235E+01 0.12545100944E+02 0.18441856749E+02 0.26223587620E+02
 0.35739892320E+02 0.46650547150E+02 0.58431345897E+02 0.70378927610E+02 0.81633612828E+02
 0.91244471201E+02 0.98287071929E+02 0.10201704213E+03 0.10201705112E+03 0.87889423991E+02
 0.80118858886E+02 0.70378958852E+02 0.59544528861E+02 0.48464329038E+02 0.37876673083E+02
 0.28367039765E+02 0.20351197474E+02 0.14064703011E+02 0.95513054442E+01 0.66583429549E+01
 0.50549391770E+01 0.42836351035E+01 0.38576884947E+01 0.35646013317E+01 0.33950683042E+01
 0.33399758641E+01 0.33950676738E+01 0.35645997766E+01 0.38576858231E+01 0.42836317410E+01
 0.50549363912E+01 0.66583425141E+01 0.95513087248E+01 0.14064709927E+02 0.20351205782E+02
 0.28367045245E+02 0.37876670727E+02 0.48464314934E+02 0.59544502077E+02 0.70378922485E+02
 0.80118819749E+02 0.87889390869E+02 0.92914313170E+02 0.94653887611E+02 0.92914332160E+02
 0.75742086782E+02 0.67785930855E+02 0.58431367064E+02 0.48464329038E+02 0.38615457069E+02
 0.29501156767E+02 0.21592144563E+02 0.15194456000E+02 0.10433269616E+02 0.72425581710E+01
 0.53731237695E+01 0.44307932400E+01 0.39477401202E+01 0.36140105572E+01 0.34006825134E+01
 0.32980441539E+01 0.32980447331E+01 0.34006837819E+01 0.36140114444E+01 0.39477397533E+01
 0.44307917286E+01 0.53731224441E+01 0.72425590346E+01 0.10433274169E+02 0.15194464006E+02
 0.21592153418E+02 0.29501161957E+02 0.38615453703E+02 0.48464313917E+02 0.58431340459E+02
 0.67785897121E+02 0.75742053451E+02 0.81551946420E+02 0.84621962189E+02 0.84621971175E+02
 0.81551970884E+02 0.62878454821E+02 0.55211249308E+02 0.46650556975E+02 0.37876673083E+02
 0.29501156767E+02 0.22022468158E+02 0.15796752470E+02 0.11015314975E+02 0.76887970946E+01
 0.56470444876E+01 0.45656442379E+01 0.40230525841E+01 0.36590323049E+01 0.34107545305E+01
 0.32691872897E+01 0.32235031114E+01 0.32691899185E+01 0.34107583603E+01 0.36590352818E+01
 0.40230532026E+01 0.45656424585E+01 0.56470418677E+01 0.76887960078E+01 0.11015317248E+02
 0.15796758116E+02 0.22022474890E+02 0.29501160629E+02 0.37876670049E+02 0.46650544843E+02
 0.55211229060E+02 0.62878430760E+02 0.68971302584E+02 0.72898901172E+02 0.74256241310E+02
 0.72898913845E+02 0.68971324078E+02 0.50220000770E+02 0.43214841128E+02 0.35739892788E+02
 0.28367039765E+02 0.21592144563E+02 0.15796752470E+02 0.11218628235E+02 0.79304231079E+01
 0.58327148607E+01 0.46706967837E+01 0.40795366277E+01 0.36957848809E+01 0.34219449700E+01
 0.32504079841E+01 0.31688381498E+01 0.31688399248E+01 0.32504124164E+01 0.34219498047E+01
 0.36957875789E+01 0.40795355737E+01 0.46706920545E+01 0.58327081747E+01 0.79304169829E+01
 0.11218624747E+02 0.15796752207E+02 0.21592146302E+02 0.28367041013E+02 0.35739890991E+02
 0.43214834967E+02 0.50219990937E+02 0.56159724490E+02 0.60483247688E+02 0.62762532898E+02
 0.62762536125E+02 0.60483256229E+02 0.56159735414E+02 0.38507842917E+02 0.32430685280E+02
 0.26223582724E+02 0.20351197474E+02 0.15194456000E+02 0.11015314975E+02 0.79304231079E+01
 0.58984380589E+01 0.47285218939E+01 0.41151014180E+01 0.37215591526E+01 0.34316203702E+01
 0.32388796937E+01 0.31307613573E+01 0.30961524488E+01 0.31307640029E+01 0.32388836864E+01
 0.34316236095E+01 0.37215595340E+01 0.41150976147E+01 0.47285138288E+01 0.58984268996E+01
 0.79304108190E+01 0.11015303638E+02 0.15194447156E+02 0.20351191772E+02 0.26223579912E+02
 0.32430684519E+02 0.38507843224E+02 0.43950555618E+02 0.48268339982E+02 0.51046264848E+02
 0.52005117388E+02 0.51046264616E+02 0.48268339509E+02 0.43950555020E+02 0.28284836744E+02
 0.23300785046E+02 0.18441850806E+02 0.14064703011E+02 0.10433269616E+02 0.76887970946E+01
 0.58327148607E+01 0.47285218939E+01 0.41273530155E+01 0.37347853095E+01 0.34380387220E+01
 0.32323866318E+01 0.31061080159E+01 0.30467620868E+01 0.30467625401E+01 0.31061092345E+01
 0.32323881528E+01 0.34380396766E+01 0.37347844359E+01 0.41273488677E+01 0.47285132812E+01
 0.58327013884E+01 0.76887795821E+01 0.10433250178E+02 0.14064684637E+02 0.18441836558E+02
 0.23300777081E+02 0.28284835553E+02 0.32983022105E+02 0.36975074456E+02 0.39881327580E+02
 0.41412742368E+02 0.41412740097E+02 0.39881321776E+02 0.36975067785E+02 0.32983017929E+02
 0.19899321578E+02 0.16076599740E+02 0.12545097165E+02 0.95513054442E+01 0.72425581710E+01
 0.56470444876E+01 0.46706967837E+01 0.41151014180E+01 0.37347853095E+01 0.34402722277E+01