   1   1   1   0
  0.1179856E+02  0.2555336E-09  0.2555336E-09  0.2555336E-09  0.5000000E-15
  1.000000000000000E-004
  CAR 
 Co-fcc                                  
     52.41731833     -1.62628593  301      9.22376786      1.00000000
     -1.626  0.0000E+00  0.0000E+00  0.0000E+00  0.0000E+00
     -1.446  0.0000E+00  0.0000E+00  0.0000E+00  0.0000E+00
     -1.266  0.0000E+00  0.0000E+00  0.0000E+00  0.0000E+00
     -1.086  0.0000E+00  0.0000E+00  0.0000E+00  0.0000E+00
     -0.906  0.0000E+00  0.0000E+00  0.0000E+00  0.0000E+00
     -0.726  0.0000E+00  0.0000E+00  0.0000E+00  0.0000E+00
     -0.545  0.0000E+00  0.0000E+00  0.0000E+00  0.0000E+00
     -0.365  0.0000E+00  0.0000E+00  0.0000E+00  0.0000E+00
     -0.185  0.0000E+00  0.0000E+00  0.0000E+00  0.0000E+00
     -0.005  0.0000E+00  0.0000E+00  0.0000E+00  0.0000E+00
      0.175  0.0000E+00  0.0000E+00  0.0000E+00  0.0000E+00
      0.355  0.0000E+00  0.0000E+00  0.0000E+00  0.0000E+00
      0.535  0.0000E+00  0.1204E-19  0.0000E+00  0.2168E-20
      0.716  0.9555E-07  0.1285E-06  0.1721E-07  0.2315E-07
      0.896  0.2084E-03  0.2098E-03  0.3756E-04  0.3781E-04
      1.076  0.8356E-05  0.6957E-05  0.3907E-04  0.3907E-04
      1.256  0.5687E-03  0.5715E-03  0.1415E-03  0.1420E-03
      1.436  0.8180E-04  0.7900E-04  0.1563E-03  0.1563E-03
      1.616  0.5229E-03  0.5030E-03  0.2504E-03  0.2469E-03
      1.796  0.1276E-03  0.1475E-03  0.2734E-03  0.2734E-03
      1.977  0.7034E-03  0.6206E-03  0.4002E-03  0.3852E-03
      2.157  0.1640E-03  0.2468E-03  0.4297E-03  0.4297E-03
      2.337  0.1163E-02  0.9732E-03  0.6393E-03  0.6050E-03
      2.517  0.1409E-03  0.3279E-03  0.6647E-03  0.6641E-03
      2.697  0.6435E-03  0.5928E-03  0.7806E-03  0.7709E-03
      2.877  0.6578E-04  0.5834E-04  0.7925E-03  0.7814E-03
      3.057  0.1238E-02  0.1255E-02  0.1016E-02  0.1007E-02
      3.238  0.1272E-02  0.1098E-03  0.1245E-02  0.1027E-02
      3.418  0.7001E-03  0.1884E-02  0.1371E-02  0.1367E-02
      3.598  0.7199E-03  0.2354E-03  0.1500E-02  0.1409E-02
      3.778  0.6022E-03  0.4307E-03  0.1609E-02  0.1487E-02
      3.958  0.2662E-02  0.1231E-02  0.2088E-02  0.1708E-02
      4.138  0.1116E-02  0.9170E-03  0.2290E-02  0.1874E-02
      4.319  0.1871E-02  0.1309E-02  0.2627E-02  0.2109E-02
      4.499  0.4585E-02  0.1294E-02  0.3453E-02  0.2342E-02
      4.679  0.8624E-02  0.9696E-03  0.5006E-02  0.2517E-02
      4.859  0.4545E-02  0.1436E-02  0.5825E-02  0.2776E-02
      5.039  0.9430E-02  0.2159E-02  0.7524E-02  0.3165E-02
      5.219  0.9972E-02  0.2182E-02  0.9320E-02  0.3558E-02
      5.399  0.1076E-01  0.2084E-02  0.1126E-01  0.3933E-02
      5.580  0.8498E-02  0.4403E-02  0.1279E-01  0.4726E-02
      5.760  0.1041E-01  0.3210E-02  0.1466E-01  0.5305E-02
      5.940  0.8177E-02  0.6508E-02  0.1614E-01  0.6477E-02
      6.120  0.1029E-01  0.2470E-02  0.1799E-01  0.6922E-02
      6.300  0.1306E-01  0.6502E-02  0.2034E-01  0.8093E-02
      6.480  0.1370E-01  0.6420E-02  0.2281E-01  0.9250E-02
      6.660  0.1680E-01  0.9239E-02  0.2584E-01  0.1091E-01
      6.841  0.1881E-01  0.8300E-02  0.2923E-01  0.1241E-01
      7.021  0.1404E-01  0.6561E-02  0.3176E-01  0.1359E-01
      7.201  0.1175E-01  0.9554E-02  0.3387E-01  0.1531E-01
      7.381  0.1382E-01  0.5956E-02  0.3636E-01  0.1639E-01
      7.561  0.1602E-01  0.1168E-01  0.3925E-01  0.1849E-01
      7.741  0.1283E-01  0.1045E-01  0.4156E-01  0.2037E-01
      7.921  0.1030E-01  0.9887E-02  0.4341E-01  0.2215E-01
      8.102  0.1511E-01  0.1223E-01  0.4614E-01  0.2436E-01
      8.282  0.1741E-01  0.1122E-01  0.4927E-01  0.2638E-01
      8.462  0.1544E-01  0.1384E-01  0.5205E-01  0.2887E-01
      8.642  0.3802E-02  0.1223E-01  0.5274E-01  0.3107E-01
      8.822  0.6250E-03  0.9275E-02  0.5285E-01  0.3274E-01
      9.002  0.6614E-03  0.8321E-02  0.5297E-01  0.3424E-01
      9.182  0.3165E-02  0.8671E-02  0.5354E-01  0.3580E-01
      9.363  0.1297E-02  0.1261E-01  0.5377E-01  0.3808E-01
      9.543  0.1004E-02  0.1085E-01  0.5396E-01  0.4003E-01
      9.723  0.5805E-03  0.1428E-01  0.5406E-01  0.4260E-01
      9.903  0.2272E-02  0.8220E-02  0.5447E-01  0.4408E-01
     10.083  0.2445E-02  0.1507E-01  0.5491E-01  0.4680E-01
     10.263  0.5041E-03  0.2143E-01  0.5500E-01  0.5066E-01
     10.443  0.1138E-02  0.1198E-01  0.5521E-01  0.5282E-01
     10.624  0.1870E-02  0.4234E-03  0.5554E-01  0.5289E-01
     10.804  0.3621E-04  0.4658E-02  0.5555E-01  0.5373E-01
     10.984  0.2039E-02  0.2480E-02  0.5592E-01  0.5418E-01
     11.164  0.1173E-02  0.1735E-02  0.5613E-01  0.5449E-01
     11.344  0.1713E-02  0.8606E-03  0.5644E-01  0.5465E-01
     11.524  0.2786E-02  0.1843E-02  0.5694E-01  0.5498E-01
     11.704  0.7327E-03  0.2403E-02  0.5707E-01  0.5541E-01
     11.885  0.1578E-05  0.2364E-02  0.5707E-01  0.5584E-01
     12.065  0.1243E-02  0.1014E-02  0.5729E-01  0.5602E-01
     12.245  0.5819E-04  0.1929E-02  0.5730E-01  0.5637E-01
     12.425  0.2259E-02  0.1360E-02  0.5771E-01  0.5661E-01
     12.605  0.1774E-02  0.2540E-02  0.5803E-01  0.5707E-01
     12.785  0.1421E-02  0.2702E-05  0.5829E-01  0.5707E-01
     12.965  0.4015E-03  0.1452E-02  0.5836E-01  0.5733E-01
     13.146  0.2636E-04  0.1160E-02  0.5836E-01  0.5754E-01
     13.326  0.3053E-02  0.2565E-02  0.5891E-01  0.5800E-01
     13.506  0.1734E-03  0.8854E-04  0.5895E-01  0.5802E-01
     13.686  0.1426E-05  0.1888E-02  0.5895E-01  0.5836E-01
     13.866  0.1272E-02  0.6415E-03  0.5917E-01  0.5847E-01
     14.046  0.2750E-04  0.9841E-03  0.5918E-01  0.5865E-01
     14.227  0.6092E-03  0.1628E-02  0.5929E-01  0.5895E-01
     14.407  0.1311E-02  0.1071E-02  0.5953E-01  0.5914E-01
     14.587  0.1054E-02  0.2300E-03  0.5972E-01  0.5918E-01
     14.767  0.6691E-03  0.7754E-06  0.5984E-01  0.5918E-01
     14.947  0.1223E-02  0.1263E-02  0.6006E-01  0.5941E-01
     15.127  0.9891E-03  0.6882E-03  0.6023E-01  0.5953E-01
     15.307  0.2361E-02  0.1246E-02  0.6066E-01  0.5976E-01
     15.488  0.9228E-03  0.5404E-04  0.6083E-01  0.5977E-01
     15.668  0.2378E-02  0.2255E-05  0.6125E-01  0.5977E-01
     15.848  0.1061E-02  0.1992E-02  0.6145E-01  0.6012E-01
     16.028  0.1442E-02  0.2107E-02  0.6171E-01  0.6050E-01
     16.208  0.1171E-02  0.1824E-02  0.6192E-01  0.6083E-01
     16.388  0.1820E-02  0.1904E-02  0.6224E-01  0.6118E-01
     16.568  0.7705E-03  0.2043E-02  0.6238E-01  0.6154E-01
     16.749  0.1706E-04  0.8365E-03  0.6239E-01  0.6169E-01
     16.929  0.2516E-02  0.1608E-02  0.6284E-01  0.6198E-01
     17.109  0.2344E-02  0.2210E-02  0.6326E-01  0.6238E-01
     17.289  0.3449E-03  0.1003E-05  0.6332E-01  0.6238E-01
     17.469  0.2205E-02  0.1898E-02  0.6372E-01  0.6272E-01
     17.649  0.3790E-03  0.2494E-02  0.6379E-01  0.6317E-01
     17.829  0.6933E-03  0.6976E-03  0.6391E-01  0.6330E-01
     18.010  0.7252E-03  0.1471E-02  0.6404E-01  0.6356E-01
     18.190  0.1182E-02  0.1246E-02  0.6426E-01  0.6379E-01
     18.370  0.1751E-02  0.2601E-03  0.6457E-01  0.6384E-01
     18.550  0.3440E-02  0.1067E-02  0.6519E-01  0.6403E-01
     18.730  0.2793E-03  0.1274E-02  0.6524E-01  0.6426E-01
     18.910  0.1130E-02  0.1162E-02  0.6545E-01  0.6447E-01
     19.090  0.3056E-02  0.1813E-02  0.6600E-01  0.6479E-01
     19.271  0.2753E-02  0.2327E-02  0.6649E-01  0.6521E-01
     19.451  0.1335E-02  0.1218E-02  0.6673E-01  0.6543E-01
     19.631  0.1822E-02  0.3242E-02  0.6706E-01  0.6602E-01
     19.811  0.1944E-02  0.2212E-02  0.6741E-01  0.6641E-01
     19.991  0.3755E-03  0.1777E-02  0.6748E-01  0.6673E-01
     20.171  0.1175E-02  0.1805E-02  0.6769E-01  0.6706E-01
     20.351  0.1203E-02  0.1861E-02  0.6791E-01  0.6740E-01
     20.532  0.1909E-02  0.1356E-02  0.6825E-01  0.6764E-01
     20.712  0.5235E-02  0.2965E-03  0.6919E-01  0.6769E-01
     20.892  0.4072E-03  0.2174E-02  0.6927E-01  0.6808E-01
     21.072  0.1135E-02  0.3081E-02  0.6947E-01  0.6864E-01
     21.252  0.4711E-02  0.3212E-02  0.7032E-01  0.6922E-01
     21.432  0.1551E-02  0.9733E-03  0.7060E-01  0.6939E-01
     21.612  0.1020E-02  0.1356E-02  0.7078E-01  0.6964E-01
     21.793  0.1725E-02  0.4481E-02  0.7110E-01  0.7045E-01
     21.973  0.1288E-02  0.1088E-02  0.7133E-01  0.7064E-01
     22.153  0.1082E-02  0.2482E-02  0.7152E-01  0.7109E-01
     22.333  0.3614E-02  0.1312E-02  0.7217E-01  0.7132E-01
     22.513  0.3115E-02  0.3194E-03  0.7273E-01  0.7138E-01
     22.693  0.1362E-02  0.3819E-02  0.7298E-01  0.7207E-01
     22.873  0.1331E-02  0.3674E-02  0.7322E-01  0.7273E-01
     23.054  0.3062E-02  0.7791E-03  0.7377E-01  0.7287E-01
     23.234  0.1841E-02  0.3612E-02  0.7410E-01  0.7352E-01
     23.414  0.1058E-02  0.1050E-02  0.7429E-01  0.7371E-01
     23.594  0.2429E-02  0.2007E-02  0.7473E-01  0.7407E-01
     23.774  0.2475E-02  0.2874E-02  0.7518E-01  0.7459E-01
     23.954  0.2405E-02  0.7574E-03  0.7561E-01  0.7473E-01
     24.134  0.3167E-02  0.2457E-02  0.7618E-01  0.7517E-01
     24.315  0.1464E-02  0.3190E-02  0.7644E-01  0.7575E-01
     24.495  0.1572E-02  0.2747E-02  0.7673E-01  0.7624E-01
     24.675  0.5499E-02  0.1651E-02  0.7772E-01  0.7654E-01
     24.855  0.1465E-02  0.1537E-02  0.7798E-01  0.7681E-01
     25.035  0.1444E-03  0.4872E-02  0.7801E-01  0.7769E-01
     25.215  0.3094E-02  0.1747E-02  0.7857E-01  0.7801E-01
     25.396  0.2326E-02  0.5729E-03  0.7898E-01  0.7811E-01
     25.576  0.2143E-02  0.3515E-02  0.7937E-01  0.7874E-01
     25.756  0.1024E-02  0.1502E-02  0.7955E-01  0.7901E-01
     25.936  0.1918E-02  0.2219E-02  0.7990E-01  0.7941E-01
     26.116  0.1457E-02  0.1134E-02  0.8016E-01  0.7962E-01
     26.296  0.1897E-02  0.2878E-02  0.8050E-01  0.8014E-01
     26.476  0.1457E-02  0.8031E-03  0.8077E-01  0.8028E-01
     26.657  0.2117E-02  0.1307E-02  0.8115E-01  0.8052E-01
     26.837  0.2778E-02  0.3033E-02  0.8165E-01  0.8106E-01
     27.017  0.2092E-02  0.1648E-02  0.8203E-01  0.8136E-01
     27.197  0.1965E-02  0.3389E-02  0.8238E-01  0.8197E-01
     27.377  0.1700E-03  0.1331E-02  0.8241E-01  0.8221E-01
     27.557  0.2032E-02  0.1152E-02  0.8278E-01  0.8242E-01
     27.737  0.1716E-02  0.7108E-03  0.8309E-01  0.8255E-01
     27.918  0.4634E-04  0.1880E-02  0.8309E-01  0.8288E-01
     28.098  0.4558E-02  0.2084E-02  0.8392E-01  0.8326E-01
     28.278  0.8130E-03  0.2298E-02  0.8406E-01  0.8367E-01
     28.458  0.2388E-02  0.2597E-02  0.8449E-01  0.8414E-01
     28.638  0.1274E-02  0.1539E-02  0.8472E-01  0.8442E-01
     28.818  0.1725E-02  0.4123E-03  0.8503E-01  0.8449E-01
     28.998  0.1609E-02  0.2192E-02  0.8532E-01  0.8489E-01
     29.179  0.1298E-02  0.1625E-02  0.8556E-01  0.8518E-01
     29.359  0.1882E-02  0.2678E-02  0.8589E-01  0.8566E-01
     29.539  0.3160E-02  0.1455E-02  0.8646E-01  0.8593E-01
     29.719  0.2132E-02  0.2159E-02  0.8685E-01  0.8631E-01
     29.899  0.3177E-02  0.3719E-02  0.8742E-01  0.8698E-01
     30.079  0.1899E-02  0.2485E-02  0.8776E-01  0.8743E-01
     30.259  0.2141E-02  0.2600E-02  0.8815E-01  0.8790E-01
     30.440  0.2108E-02  0.1428E-02  0.8853E-01  0.8816E-01
     30.620  0.1302E-02  0.1881E-02  0.8876E-01  0.8850E-01
     30.800  0.3027E-02  0.1120E-02  0.8931E-01  0.8870E-01
     30.980  0.4921E-02  0.5777E-02  0.9019E-01  0.8974E-01
     31.160  0.3363E-02  0.3001E-02  0.9080E-01  0.9028E-01
     31.340  0.7652E-03  0.2459E-02  0.9094E-01  0.9072E-01
     31.520  0.3912E-02  0.2094E-02  0.9164E-01  0.9110E-01
     31.701  0.2622E-02  0.2220E-02  0.9211E-01  0.9150E-01
     31.881  0.1273E-02  0.3807E-02  0.9234E-01  0.9219E-01
     32.061  0.2993E-02  0.1550E-02  0.9288E-01  0.9246E-01
     32.241  0.4244E-02  0.4273E-02  0.9365E-01  0.9323E-01
     32.421  0.2111E-02  0.1686E-02  0.9403E-01  0.9354E-01
     32.601  0.1608E-02  0.3260E-02  0.9432E-01  0.9413E-01
     32.781  0.3718E-02  0.3673E-03  0.9499E-01  0.9419E-01
     32.962  0.1702E-02  0.3010E-02  0.9529E-01  0.9473E-01
     33.142  0.3856E-02  0.3579E-02  0.9599E-01  0.9538E-01
     33.322  0.2969E-02  0.4428E-02  0.9652E-01  0.9618E-01
     33.502  0.1863E-02  0.6990E-03  0.9686E-01  0.9630E-01
     33.682  0.2512E-02  0.2661E-02  0.9731E-01  0.9678E-01
     33.862  0.3204E-02  0.2679E-02  0.9789E-01  0.9726E-01
     34.042  0.2651E-02  0.4352E-02  0.9837E-01  0.9805E-01
     34.223  0.2736E-02  0.1379E-02  0.9886E-01  0.9830E-01
     34.403  0.1070E-02  0.2512E-02  0.9905E-01  0.9875E-01
     34.583  0.2846E-03  0.1167E-02  0.9910E-01  0.9896E-01
     34.763  0.1293E-02  0.7915E-03  0.9934E-01  0.9910E-01
     34.943  0.2413E-02  0.1353E-02  0.9977E-01  0.9935E-01
     35.123  0.3193E-02  0.3403E-02  0.1003E+00  0.9996E-01
     35.304  0.3909E-03  0.1531E-02  0.1004E+00  0.1002E+00
     35.484  0.1186E-02  0.3839E-07  0.1006E+00  0.1002E+00
     35.664  0.8418E-03  0.8570E-03  0.1008E+00  0.1004E+00
     35.844  0.2280E-02  0.1010E-02  0.1012E+00  0.1006E+00
     36.024  0.2271E-02  0.4029E-02  0.1016E+00  0.1013E+00
     36.204  0.1355E-03  0.1953E-02  0.1016E+00  0.1016E+00
     36.384  0.1626E-02  0.4461E-03  0.1019E+00  0.1017E+00
     36.565  0.2290E-02  0.1245E-02  0.1023E+00  0.1020E+00
     36.745  0.3098E-02  0.9467E-03  0.1029E+00  0.1021E+00
     36.925  0.3084E-02  0.3453E-02  0.1034E+00  0.1027E+00
     37.105  0.4781E-02  0.2082E-02  0.1043E+00  0.1031E+00
     37.285  0.3510E-02  0.4474E-02  0.1049E+00  0.1039E+00
     37.465  0.3019E-02  0.5275E-02  0.1055E+00  0.1049E+00
     37.645  0.2823E-02  0.3837E-02  0.1060E+00  0.1056E+00
     37.826  0.3272E-02  0.3176E-02  0.1066E+00  0.1061E+00
     38.006  0.3619E-02  0.1488E-02  0.1072E+00  0.1064E+00
     38.186  0.1664E-02  0.2970E-02  0.1075E+00  0.1069E+00
     38.366  0.6882E-03  0.3310E-02  0.1077E+00  0.1075E+00
     38.546  0.2087E-02  0.6848E-03  0.1080E+00  0.1077E+00
     38.726  0.2520E-02  0.1758E-02  0.1085E+00  0.1080E+00
     38.906  0.2664E-02  0.3269E-02  0.1090E+00  0.1086E+00
     39.087  0.2407E-02  0.3340E-02  0.1094E+00  0.1092E+00
     39.267  0.2041E-02  0.2105E-02  0.1098E+00  0.1095E+00
     39.447  0.2890E-02  0.1220E-02  0.1103E+00  0.1098E+00
     39.627  0.4918E-02  0.2402E-02  0.1112E+00  0.1102E+00
     39.807  0.7643E-03  0.4153E-02  0.1113E+00  0.1109E+00
     39.987  0.2005E-02  0.2954E-02  0.1117E+00  0.1115E+00
     40.167  0.6954E-03  0.1697E-02  0.1118E+00  0.1118E+00
     40.348  0.1322E-02  0.5090E-04  0.1120E+00  0.1118E+00
     40.528  0.2513E-02  0.1227E-02  0.1125E+00  0.1120E+00
     40.708  0.1388E-02  0.2680E-02  0.1127E+00  0.1125E+00
     40.888  0.2644E-02  0.2522E-02  0.1132E+00  0.1130E+00
     41.068  0.4182E-02  0.3288E-02  0.1140E+00  0.1135E+00
     41.248  0.9532E-03  0.1856E-02  0.1141E+00  0.1139E+00
     41.428  0.4855E-03  0.1432E-02  0.1142E+00  0.1141E+00
     41.609  0.3862E-02  0.1296E-02  0.1149E+00  0.1144E+00
     41.789  0.2062E-03  0.9562E-03  0.1150E+00  0.1145E+00
     41.969  0.1020E-08  0.1886E-02  0.1150E+00  0.1149E+00
     42.149  0.1017E-02  0.4347E-03  0.1151E+00  0.1150E+00
     42.329  0.4146E-02  0.1736E-02  0.1159E+00  0.1153E+00
     42.509  0.5736E-03  0.2108E-02  0.1160E+00  0.1157E+00
     42.689  0.3810E-02  0.1320E-02  0.1167E+00  0.1159E+00
     42.870  0.8622E-03  0.3833E-02  0.1168E+00  0.1166E+00
     43.050  0.4300E-09  0.1392E-02  0.1168E+00  0.1168E+00
     43.230  0.1821E-09  0.4378E-05  0.1168E+00  0.1168E+00
     43.410  0.1320E-02  0.5353E-03  0.1171E+00  0.1169E+00
     43.590  0.3158E-02  0.2036E-02  0.1176E+00  0.1173E+00
     43.770  0.1353E-02  0.1612E-02  0.1179E+00  0.1176E+00
     43.950  0.1111E-02  0.1672E-02  0.1181E+00  0.1179E+00
     44.131  0.8636E-03  0.5421E-03  0.1182E+00  0.1180E+00
     44.311  0.3363E-03  0.1408E-02  0.1183E+00  0.1182E+00
     44.491  0.1615E-02  0.7714E-03  0.1186E+00  0.1184E+00
     44.671  0.4190E-06  0.1182E-02  0.1186E+00  0.1186E+00
     44.851  0.3676E-16  0.1369E-08  0.1186E+00  0.1186E+00
     45.031  0.1008E-04  0.5290E-05  0.1186E+00  0.1186E+00
     45.212  0.1286E-02  0.1286E-02  0.1188E+00  0.1188E+00
     45.392  0.4867E-05  0.9326E-05  0.1188E+00  0.1188E+00
     45.572  0.2993E-06  0.0000E+00  0.1188E+00  0.1188E+00
     45.752  0.1256E-02  0.1703E-13  0.1191E+00  0.1188E+00
     45.932  0.1343E-02  0.6408E-04  0.1193E+00  0.1188E+00
     46.112  0.2896E-02  0.1438E-02  0.1198E+00  0.1191E+00
     46.292  0.1011E-02  0.1100E-02  0.1200E+00  0.1193E+00
     46.473  0.2118E-08  0.2948E-07  0.1200E+00  0.1193E+00
     46.653  0.0000E+00  0.0000E+00  0.1200E+00  0.1193E+00
     46.833  0.0000E+00  0.5218E-15  0.1200E+00  0.1193E+00
     47.013  0.0000E+00  0.1589E-04  0.1200E+00  0.1193E+00
     47.193  0.0000E+00  0.6340E-03  0.1200E+00  0.1194E+00
     47.373  0.0000E+00  0.7608E-03  0.1200E+00  0.1196E+00
     47.553  0.0000E+00  0.5408E-03  0.1200E+00  0.1196E+00
     47.734  0.0000E+00  0.7203E-10  0.1200E+00  0.1196E+00
     47.914  0.0000E+00  0.0000E+00  0.1200E+00  0.1196E+00
     48.094  0.0000E+00  0.3949E-08  0.1200E+00  0.1196E+00
     48.274  0.0000E+00  0.4972E-03  0.1200E+00  0.1197E+00
     48.454  0.0000E+00  0.1533E-03  0.1200E+00  0.1198E+00
     48.634  0.0000E+00  0.1966E-11  0.1200E+00  0.1198E+00
     48.814  0.0000E+00  0.0000E+00  0.1200E+00  0.1198E+00
     48.995  0.0000E+00  0.0000E+00  0.1200E+00  0.1198E+00
     49.175  0.0000E+00  0.0000E+00  0.1200E+00  0.1198E+00
     49.355  0.0000E+00  0.0000E+00  0.1200E+00  0.1198E+00
     49.535  0.0000E+00  0.0000E+00  0.1200E+00  0.1198E+00
     49.715  0.0000E+00  0.6518E-10  0.1200E+00  0.1198E+00
     49.895  0.0000E+00  0.3192E-03  0.1200E+00  0.1198E+00
     50.075  0.0000E+00  0.9815E-03  0.1200E+00  0.1200E+00
     50.256  0.0000E+00  0.3856E-06  0.1200E+00  0.1200E+00
     50.436  0.0000E+00  0.0000E+00  0.1200E+00  0.1200E+00
     50.616  0.0000E+00  0.0000E+00  0.1200E+00  0.1200E+00
     50.796  0.0000E+00  0.0000E+00  0.1200E+00  0.1200E+00
     50.976  0.0000E+00  0.0000E+00  0.1200E+00  0.1200E+00
     51.156  0.0000E+00  0.0000E+00  0.1200E+00  0.1200E+00
     51.336  0.0000E+00  0.0000E+00  0.1200E+00  0.1200E+00
     51.517  0.0000E+00  0.0000E+00  0.1200E+00  0.1200E+00
     51.697  0.0000E+00  0.0000E+00  0.1200E+00  0.1200E+00
     51.877  0.0000E+00  0.0000E+00  0.1200E+00  0.1200E+00
     52.057  0.0000E+00  0.0000E+00  0.1200E+00  0.1200E+00
     52.237  0.0000E+00  0.0000E+00  0.1200E+00  0.1200E+00
     52.417  0.0000E+00  0.0000E+00  0.1200E+00  0.1200E+00
     52.41731833     -1.62628593  301      9.22376786      1.00000000
     -1.626  0.0000E+00  0.0000E+00  0.0000E+00  0.0000E+00  0.0000E+00  0.0000E+00  0.0000E+00  0.0000E+00  0.0000E+00  0.0000E+00  0.0000E+00  0.0000E+00  0.0000E+00  0.0000E+00  0.0000E+00  0.0000E+00  0.0000E+00  0.0000E+00
     -1.446  0.0000E+00  0.0000E+00  0.0000E+00  0.0000E+00  0.0000E+00  0.0000E+00  0.0000E+00  0.0000E+00  0.0000E+00  0.0000E+00  0.0000E+00  0.0000E+00  0.0000E+00  0.0000E+00  0.0000E+00  0.0000E+00  0.0000E+00  0.0000E+00
     -1.266  0.0000E+00  0.0000E+00  0.0000E+00  0.0000E+00  0.0000E+00  0.0000E+00  0.0000E+00  0.0000E+00  0.0000E+00  0.0000E+00  0.0000E+00  0.0000E+00  0.0000E+00  0.0000E+00  0.0000E+00  0.0000E+00  0.0000E+00  0.0000E+00
     -1.086  0.0000E+00  0.0000E+00  0.0000E+00  0.0000E+00  0.0000E+00  0.0000E+00  0.0000E+00  0.0000E+00  0.0000E+00  0.0000E+00  0.0000E+00  0.0000E+00  0.0000E+00  0.0000E+00  0.0000E+00  0.0000E+00  0.0000E+00  0.0000E+00
     -0.906  0.0000E+00  0.0000E+00  0.0000E+00  0.0000E+00  0.0000E+00  0.0000E+00  0.0000E+00  0.0000E+00  0.0000E+00  0.0000E+00  0.0000E+00  0.0000E+00  0.0000E+00  0.0000E+00  0.0000E+00  0.0000E+00  0.0000E+00  0.0000E+00
     -0.726  0.0000E+00  0.0000E+00  0.0000E+00  0.0000E+00  0.0000E+00  0.0000E+00  0.0000E+00  0.0000E+00  0.0000E+00  0.0000E+00  0.0000E+00  0.0000E+00  0.0000E+00  0.0000E+00  0.0000E+00  0.0000E+00  0.0000E+00  0.0000E+00
     -0.545  0.0000E+00  0.0000E+00  0.0000E+00  0.0000E+00  0.0000E+00  0.0000E+00  0.0000E+00  0.0000E+00  0.0000E+00  0.0000E+00  0.0000E+00  0.0000E+00  0.0000E+00  0.0000E+00  0.0000E+00  0.0000E+00  0.0000E+00  0.0000E+00
     -0.365  0.0000E+00  0.0000E+00  0.0000E+00  0.0000E+00  0.0000E+00  0.0000E+00  0.0000E+00  0.0000E+00  0.0000E+00  0.0000E+00  0.0000E+00  0.0000E+00  0.0000E+00  0.0000E+00  0.0000E+00  0.0000E+00  0.0000E+00  0.0000E+00
     -0.185  0.0000E+00  0.0000E+00  0.0000E+00  0.0000E+00  0.0000E+00  0.0000E+00  0.0000E+00  0.0000E+00  0.0000E+00  0.0000E+00  0.0000E+00  0.0000E+00  0.0000E+00  0.0000E+00  0.0000E+00  0.0000E+00  0.0000E+00  0.0000E+00
     -0.005  0.0000E+00  0.0000E+00  0.0000E+00  0.0000E+00  0.0000E+00  0.0000E+00  0.0000E+00  0.0000E+00  0.0000E+00  0.0000E+00  0.0000E+00  0.0000E+00  0.0000E+00  0.0000E+00  0.0000E+00  0.0000E+00  0.0000E+00  0.0000E+00
      0.175  0.0000E+00  0.0000E+00  0.0000E+00  0.0000E+00  0.0000E+00  0.0000E+00  0.0000E+00  0.0000E+00  0.0000E+00  0.0000E+00  0.0000E+00  0.0000E+00  0.0000E+00  0.0000E+00  0.0000E+00  0.0000E+00  0.0000E+00  0.0000E+00
      0.355  0.0000E+00  0.0000E+00  0.0000E+00  0.0000E+00  0.0000E+00  0.0000E+00  0.0000E+00  0.0000E+00  0.0000E+00  0.0000E+00  0.0000E+00  0.0000E+00  0.0000E+00  0.0000E+00  0.0000E+00  0.0000E+00  0.0000E+00  0.0000E+00
      0.535  0.0000E+00  0.7796E-18  0.0000E+00  0.3667E-20  0.0000E+00  0.3667E-20  0.0000E+00  0.3667E-20  0.0000E+00  0.4207E-22  0.0000E+00  0.4207E-22  0.0000E+00  0.7321E-36  0.0000E+00  0.4207E-22  0.0000E+00  0.7321E-36
      0.716  0.6216E-05  0.8321E-05  0.2900E-07  0.3914E-07  0.2900E-07  0.3914E-07  0.2900E-07  0.3914E-07  0.4717E-09  0.4490E-09  0.4717E-09  0.4490E-09  0.1215E-21  0.7814E-23  0.4717E-09  0.4490E-09  0.1215E-21  0.7814E-23
      0.896  0.1356E-01  0.1359E-01  0.6325E-04  0.6390E-04  0.6325E-04  0.6390E-04  0.6325E-04  0.6390E-04  0.1029E-05  0.7332E-06  0.1029E-05  0.7332E-06  0.2651E-18  0.1276E-19  0.1029E-05  0.7332E-06  0.2651E-18  0.1276E-19
      1.076  0.5435E-03  0.4505E-03  0.2556E-05  0.2141E-05  0.2556E-05  0.2141E-05  0.2556E-05  0.2141E-05  0.4197E-07  0.2485E-07  0.4197E-07  0.2485E-07  0.1131E-08  0.8630E-09  0.4197E-07  0.2485E-07  0.1131E-08  0.8630E-09
      1.256  0.3561E-01  0.3562E-01  0.6174E-03  0.6237E-03  0.6174E-03  0.6237E-03  0.6174E-03  0.6237E-03  0.1874E-04  0.1304E-04  0.1874E-04  0.1304E-04  0.2515E-04  0.1766E-04  0.1874E-04  0.1304E-04  0.2515E-04  0.1766E-04
      1.436  0.5122E-02  0.4923E-02  0.8880E-04  0.8622E-04  0.8880E-04  0.8622E-04  0.8880E-04  0.8622E-04  0.2697E-05  0.1803E-05  0.2697E-05  0.1803E-05  0.3618E-05  0.2441E-05  0.2697E-05  0.1803E-05  0.3618E-05  0.2441E-05
      1.616  0.3146E-01  0.3014E-01  0.9426E-03  0.9170E-03  0.9426E-03  0.9170E-03  0.9426E-03  0.9170E-03  0.9666E-04  0.6257E-04  0.9666E-04  0.6257E-04  0.2203E-04  0.1485E-04  0.9666E-04  0.6257E-04  0.2203E-04  0.1485E-04
      1.796  0.7679E-02  0.8836E-02  0.2301E-03  0.2688E-03  0.2301E-03  0.2688E-03  0.2301E-03  0.2688E-03  0.2360E-04  0.1834E-04  0.2360E-04  0.1834E-04  0.5381E-05  0.4354E-05  0.2360E-04  0.1834E-04  0.5381E-05  0.4354E-05
      1.977  0.4046E-01  0.3563E-01  0.1754E-02  0.1570E-02  0.1754E-02  0.1570E-02  0.1754E-02  0.1570E-02  0.1524E-03  0.8662E-04  0.1524E-03  0.8662E-04  0.2562E-03  0.1465E-03  0.1524E-03  0.8662E-04  0.2562E-03  0.1465E-03
      2.157  0.9430E-02  0.1417E-01  0.4102E-03  0.6254E-03  0.4102E-03  0.6254E-03  0.4102E-03  0.6254E-03  0.3035E-04  0.3118E-04  0.3035E-04  0.3118E-04  0.6531E-04  0.6188E-04  0.3035E-04  0.3118E-04  0.6531E-04  0.6188E-04
      2.337  0.6397E-01  0.5354E-01  0.3617E-02  0.3092E-02  0.3617E-02  0.3092E-02  0.3617E-02  0.3092E-02  0.6215E-03  0.3338E-03  0.6215E-03  0.3338E-03  0.4351E-03  0.2353E-03  0.6215E-03  0.3338E-03  0.4351E-03  0.2353E-03
      2.517  0.7739E-02  0.1804E-01  0.4393E-03  0.1042E-02  0.4393E-03  0.1042E-02  0.4393E-03  0.1042E-02  0.7842E-04  0.1125E-03  0.7842E-04  0.1125E-03  0.5218E-04  0.7930E-04  0.7842E-04  0.1125E-03  0.5218E-04  0.7930E-04
      2.697  0.3360E-01  0.3120E-01  0.2228E-02  0.2162E-02  0.2228E-02  0.2162E-02  0.2228E-02  0.2162E-02  0.9283E-03  0.5074E-03  0.9283E-03  0.5074E-03  0.1438E-03  0.8443E-04  0.9283E-03  0.5074E-03  0.1438E-03  0.8443E-04
      2.877  0.3231E-02  0.3069E-02  0.2712E-03  0.2132E-03  0.2712E-03  0.2132E-03  0.2712E-03  0.2132E-03  0.4620E-04  0.4969E-04  0.4620E-04  0.4969E-04  0.1271E-03  0.8910E-05  0.4620E-04  0.4969E-04  0.1271E-03  0.8910E-05
      3.057  0.6083E-01  0.6257E-01  0.5142E-02  0.5446E-02  0.5142E-02  0.5446E-02  0.5142E-02  0.5446E-02  0.1116E-02  0.6831E-03  0.1116E-02  0.6831E-03  0.1989E-02  0.1196E-02  0.1116E-02  0.6831E-03  0.1989E-02  0.1196E-02
      3.238  0.5862E-01  0.5334E-02  0.5438E-02  0.4895E-03  0.5438E-02  0.4895E-03  0.5438E-02  0.4895E-03  0.2951E-02  0.1353E-03  0.2951E-02  0.1353E-03  0.1733E-02  0.6870E-04  0.2951E-02  0.1353E-03  0.1733E-02  0.6870E-04
      3.418  0.3218E-01  0.8936E-01  0.3173E-02  0.8896E-02  0.3173E-02  0.8896E-02  0.3173E-02  0.8896E-02  0.9508E-03  0.2111E-02  0.9508E-03  0.2111E-02  0.1587E-02  0.1845E-02  0.9508E-03  0.2111E-02  0.1587E-02  0.1845E-02
      3.598  0.3048E-01  0.1058E-01  0.3136E-02  0.1187E-02  0.3136E-02  0.1187E-02  0.3136E-02  0.1187E-02  0.2693E-02  0.4039E-03  0.2693E-02  0.4039E-03  0.1199E-02  0.2602E-03  0.2693E-02  0.4039E-03  0.1199E-02  0.2602E-03
      3.778  0.2415E-01  0.1932E-01  0.2868E-02  0.2166E-02  0.2868E-02  0.2166E-02  0.2868E-02  0.2166E-02  0.2670E-02  0.7778E-03  0.2670E-02  0.7778E-03  0.8268E-03  0.4609E-03  0.2670E-02  0.7778E-03  0.8268E-03  0.4609E-03
      3.958  0.9759E-01  0.5233E-01  0.1201E-01  0.6739E-02  0.1201E-01  0.6739E-02  0.1201E-01  0.6739E-02  0.1227E-01  0.2971E-02  0.1227E-01  0.2971E-02  0.1023E-01  0.1075E-02  0.1227E-01  0.2971E-02  0.1023E-01  0.1075E-02
      4.138  0.3355E-01  0.3696E-01  0.3923E-02  0.4983E-02  0.3923E-02  0.4983E-02  0.3923E-02  0.4983E-02  0.9648E-02  0.2462E-02  0.9648E-02  0.2462E-02  0.5056E-02  0.1780E-02  0.9648E-02  0.2462E-02  0.5056E-02  0.1780E-02
      4.319  0.4999E-01  0.5136E-01  0.6571E-02  0.7020E-02  0.6571E-02  0.7020E-02  0.6571E-02  0.7020E-02  0.1511E-01  0.3539E-02  0.1511E-01  0.3539E-02  0.1406E-01  0.3534E-02  0.1511E-01  0.3539E-02  0.1406E-01  0.3534E-02
      4.499  0.7969E-01  0.4629E-01  0.9476E-02  0.7628E-02  0.9476E-02  0.7628E-02  0.9476E-02  0.7628E-02  0.4011E-01  0.2037E-02  0.4011E-01  0.2037E-02  0.7179E-01  0.6905E-02  0.4011E-01  0.2037E-02  0.7179E-01  0.6905E-02
      4.679  0.1285E+00  0.3348E-01  0.1879E-01  0.4773E-02  0.1879E-01  0.4773E-02  0.1879E-01  0.4773E-02  0.7492E-01  0.5759E-02  0.7492E-01  0.5759E-02  0.1487E+00  0.2091E-02  0.7492E-01  0.5759E-02  0.1487E+00  0.2091E-02
      4.859  0.4592E-01  0.4835E-01  0.6688E-02  0.8404E-02  0.6688E-02  0.8404E-02  0.6688E-02  0.8404E-02  0.5298E-01  0.7475E-02  0.5298E-01  0.7475E-02  0.8082E-01  0.2738E-02  0.5298E-01  0.7475E-02  0.8082E-01  0.2738E-02
      5.039  0.6671E-01  0.6528E-01  0.1470E-01  0.1149E-01  0.1470E-01  0.1149E-01  0.1470E-01  0.1149E-01  0.1169E+00  0.1458E-01  0.1169E+00  0.1458E-01  0.1755E+00  0.6457E-02  0.1169E+00  0.1458E-01  0.1755E+00  0.6457E-02
      5.219  0.4569E-01  0.5771E-01  0.1283E-01  0.1002E-01  0.1283E-01  0.1002E-01  0.1283E-01  0.1002E-01  0.1853E+00  0.1410E-01  0.1853E+00  0.1410E-01  0.1206E+00  0.1569E-01  0.1853E+00  0.1410E-01  0.1206E+00  0.1569E-01
      5.399  0.2376E-01  0.4496E-01  0.1530E-01  0.7392E-02  0.1530E-01  0.7392E-02  0.1530E-01  0.7392E-02  0.1913E+00  0.1821E-01  0.1913E+00  0.1821E-01  0.1579E+00  0.1928E-01  0.1913E+00  0.1821E-01  0.1579E+00  0.1928E-01
      5.580  0.1329E-01  0.8552E-01  0.1378E-01  0.1373E-01  0.1378E-01  0.1373E-01  0.1378E-01  0.1373E-01  0.1882E+00  0.4999E-01  0.1882E+00  0.4999E-01  0.7273E-01  0.3511E-01  0.1882E+00  0.4999E-01  0.7273E-01  0.3511E-01
      5.760  0.6320E-02  0.5131E-01  0.1918E-01  0.1014E-01  0.1918E-01  0.1014E-01  0.1918E-01  0.1014E-01  0.1987E+00  0.2495E-01  0.1987E+00  0.2495E-01  0.1384E+00  0.4819E-01  0.1987E+00  0.2495E-01  0.1384E+00  0.4819E-01
      5.940  0.1735E-02  0.8338E-01  0.1066E-01  0.1799E-01  0.1066E-01  0.1799E-01  0.1066E-01  0.1799E-01  0.1377E+00  0.5539E-01  0.1377E+00  0.5539E-01  0.1487E+00  0.1098E+00  0.1377E+00  0.5539E-01  0.1487E+00  0.1098E+00
      6.120  0.7541E-02  0.2505E-01  0.1584E-01  0.5289E-02  0.1584E-01  0.5289E-02  0.1584E-01  0.5289E-02  0.1995E+00  0.2388E-01  0.1995E+00  0.2388E-01  0.1433E+00  0.4535E-01  0.1995E+00  0.2388E-01  0.1433E+00  0.4535E-01
      6.300  0.9233E-02  0.5328E-01  0.2029E-01  0.1888E-01  0.2029E-01  0.1888E-01  0.2029E-01  0.1888E-01  0.2849E+00  0.6530E-01  0.2849E+00  0.6530E-01  0.1392E+00  0.1144E+00  0.2849E+00  0.6530E-01  0.1392E+00  0.1144E+00
      6.480  0.1729E-01  0.2779E-01  0.2001E-01  0.9603E-02  0.2001E-01  0.9603E-02  0.2001E-01  0.9603E-02  0.2824E+00  0.1155E+00  0.2824E+00  0.1155E+00  0.1732E+00  0.7641E-01  0.2824E+00  0.1155E+00  0.1732E+00  0.7641E-01
      6.660  0.1717E-01  0.2502E-01  0.2330E-01  0.2103E-01  0.2330E-01  0.2103E-01  0.2330E-01  0.2103E-01  0.3084E+00  0.1644E+00  0.3084E+00  0.1644E+00  0.2782E+00  0.1085E+00  0.3084E+00  0.1644E+00  0.2782E+00  0.1085E+00
      6.841  0.1705E-01  0.2417E-02  0.2103E-01  0.1669E-01  0.2103E-01  0.1669E-01  0.2103E-01  0.1669E-01  0.3828E+00  0.1718E+00  0.3828E+00  0.1718E+00  0.2722E+00  0.8140E-01  0.3828E+00  0.1718E+00  0.2722E+00  0.8140E-01
      7.021  0.1376E-01  0.5082E-02  0.1508E-01  0.1630E-01  0.1508E-01  0.1630E-01  0.1508E-01  0.1630E-01  0.2539E+00  0.1240E+00  0.2539E+00  0.1240E+00  0.2542E+00  0.7407E-01  0.2539E+00  0.1240E+00  0.2542E+00  0.7407E-01
      7.201  0.5121E-02  0.2537E-02  0.1413E-01  0.2267E-01  0.1413E-01  0.2267E-01  0.1413E-01  0.2267E-01  0.1539E+00  0.1827E+00  0.1539E+00  0.1827E+00  0.3020E+00  0.1114E+00  0.1539E+00  0.1827E+00  0.3020E+00  0.1114E+00
      7.381  0.8266E-02  0.9993E-03  0.1315E-01  0.1805E-01  0.1315E-01  0.1805E-01  0.1315E-01  0.1805E-01  0.1325E+00  0.1142E+00  0.1325E+00  0.1142E+00  0.4368E+00  0.6165E-01  0.1325E+00  0.1142E+00  0.4368E+00  0.6165E-01