    1    1  100    2
  0.1179856E+02  0.2555336E-09  0.2555336E-09  0.2555336E-09  0.5000000E-15
  1.000000000000000E-004
  CAR 
 Co-fcc                                  
      9     60     12
 
  0.6250000E-01  0.6250000E-01  0.6250000E-01  0.3906250E-02
      1          0.833192        0.830242   1.000000   1.000000
      2          6.540836        8.198565   1.000000   1.000000
      3          6.610881        8.285073   1.000000   1.000000
      4          6.610881        8.285073   1.000000   1.000000
      5          7.471237        9.507726   1.000000   0.000000
      6          7.471237        9.507726   1.000000   0.000000
      7         31.113447       30.863374   0.000000   0.000000
      8         33.593783       33.699817   0.000000   0.000000
      9         34.941515       35.152035   0.000000   0.000000
     10         34.941515       35.152035   0.000000   0.000000
     11         38.599374       38.836367   0.000000   0.000000
     12         38.599383       38.836443   0.000000   0.000000
 
  0.1875000E+00  0.6250000E-01  0.6250000E-01  0.1171875E-01
      1          1.586093        1.589821   1.000000   1.000000
      2          6.358120        7.954777   1.000000   1.000000
      3          6.747450        8.443338   1.000000   1.000000
      4          6.753496        8.450004   1.000000   1.000000
      5          7.339299        9.342329   1.000000   0.000399
      6          7.553930        9.575402   1.000000   0.000000
      7         28.038819       28.240848   0.000000   0.000000
      8         30.607231       30.710830   0.000000   0.000000
      9         34.047795       34.054694   0.000000   0.000000
     10         35.916111       36.129525   0.000000   0.000000
     11         37.729557       37.664266   0.000000   0.000000
     12         38.773657       38.963427   0.000000   0.000000
 
  0.3125000E+00  0.6250000E-01  0.6250000E-01  0.1171875E-01
      1          3.185844        3.288635   1.000000   1.000000
      2          6.271348        7.655982   1.000000   1.000000
      3          6.690792        8.439371   1.000000   1.000000
      4          6.753584        8.530990   1.000000   1.000000
      5          7.542068        9.473395   1.000000   0.000000
      6          7.921335        9.878633   1.000000   0.000000
      7         22.082728       22.527846   0.000000   0.000000
      8         29.573955       29.675447   0.000000   0.000000
      9         33.023159       33.018468   0.000000   0.000000
     10         35.298820       35.657167   0.000000   0.000000
     11         36.573680       36.797971   0.000000   0.000000
     12         37.653479       37.703061   0.000000   0.000000
 
  0.4375000E+00  0.6250000E-01  0.6250000E-01  0.1171875E-01
      1          4.304635        4.997738   1.000000   1.000000
      2          6.485908        8.007004   1.000000   1.000000
      3          6.569496        8.259931   1.000000   1.000000
      4          7.257707        8.356136   1.000000   1.000000
      5          8.030229        9.985586   1.000000   0.000000
      6          8.676460       10.403722   1.000000   0.000000
      7         16.892937       17.625093   0.000000   0.000000
      8         29.213941       29.196833   0.000000   0.000000
      9         31.734815       31.818124   0.000000   0.000000
     10         33.221143       33.556969   0.000000   0.000000
     11         35.758311       36.024742   0.000000   0.000000
     12         37.305036       37.492372   0.000000   0.000000
 
 -0.4375000E+00  0.6250000E-01  0.6250000E-01  0.1171875E-01
      1          4.433196        5.396531   1.000000   1.000000
      2          6.401184        8.124104   1.000000   1.000000
      3          6.523013        8.301948   1.000000   1.000000
      4          7.742151        8.615978   1.000000   1.000000
      5          8.274770       10.265850   1.000000   0.000000
      6          9.549886       10.656971   0.000000   0.000000
      7         14.758258       15.763156   0.000000   0.000000
      8         29.477044       29.290170   0.000000   0.000000
      9         31.488074       31.806507   0.000000   0.000000
     10         31.678643       31.938355   0.000000   0.000000
     11         36.531377       36.789757   0.000000   0.000000
     12         36.623678       36.821744   0.000000   0.000000
 
 -0.3125000E+00  0.6250000E-01  0.6250000E-01  0.1171875E-01
      1          4.088557        4.538453   1.000000   1.000000
      2          6.519815        7.745721   1.000000   1.000000
      3          6.649691        8.301713   1.000000   1.000000
      4          6.767696        8.427381   1.000000   1.000000
      5          8.092613        9.981091   1.000000   0.000000
      6          8.174300       10.080077   1.000000   0.000000
      7         18.470238       19.085373   0.000000   0.000000
      8         30.191191       29.978718   0.000000   0.000000
      9         30.980585       31.320667   0.000000   0.000000
     10         33.211164       33.563963   0.000000   0.000000
     11         36.506405       36.664537   0.000000   0.000000
     12         38.210965       38.415857   0.000000   0.000000
 
 -0.1875000E+00  0.6250000E-01  0.6250000E-01  0.1171875E-01
      1          2.607380        2.649506   1.000000   1.000000
      2          6.224751        7.713065   1.000000   1.000000
      3          6.747608        8.499512   1.000000   1.000000
      4          6.801019        8.542695   1.000000   1.000000
      5          7.479018        9.399675   1.000000   0.000000
      6          7.699288        9.700756   1.000000   0.000000
      7         24.030857       24.403693   0.000000   0.000000
      8         31.152672       31.001803   0.000000   0.000000
      9         31.522211       31.866615   0.000000   0.000000
     10         35.840403       36.097979   0.000000   0.000000
     11         36.372103       36.469939   0.000000   0.000000
     12         40.407819       40.553327   0.000000   0.000000
 
 -0.6250000E-01  0.6250000E-01  0.6250000E-01  0.1171875E-01
      1          1.215494        1.214750   1.000000   1.000000
      2          6.417411        8.045757   1.000000   1.000000
      3          6.707032        8.389998   1.000000   1.000000
      4          6.710582        8.394515   1.000000   1.000000
      5          7.355410        9.364293   1.000000   0.000035
      6          7.529757        9.571337   1.000000   0.000000
      7         29.900236       29.919024   0.000000   0.000000
      8         32.214934       32.199659   0.000000   0.000000
      9         32.907413       33.206778   0.000000   0.000000
     10         34.897590       34.981937   0.000000   0.000000
     11         38.566286       38.734723   0.000000   0.000000
     12         40.443516       40.532594   0.000000   0.000000
 
  0.1875000E+00  0.1875000E+00  0.6250000E-01  0.1171875E-01
      1          1.947252        1.957771   1.000000   1.000000
      2          6.178317        7.756172   1.000000   1.000000
      3          6.874998        8.591889   1.000000   1.000000
      4          6.904752        8.609974   1.000000   1.000000
      5          7.203328        9.134421   1.000000   0.994250
      6          7.639221        9.689669   1.000000   0.000000
      7         28.323523       28.534001   0.000000   0.000000
      8         30.683915       30.864997   0.000000   0.000000
      9         30.892494       31.014511   0.000000   0.000000
     10         33.093655       33.129458   0.000000   0.000000
     11         37.656547       38.313308   0.000000   0.000000
     12         40.934123       41.001776   0.000000   0.000000
 
  0.3125000E+00  0.1875000E+00  0.6250000E-01  0.2343750E-01
      1          3.236488        3.317430   1.000000   1.000000
      2          5.917221        7.410387   1.000000   1.000000
      3          6.675556        8.439579   1.000000   1.000000
      4          7.125022        8.891154   1.000000   1.000000
      5          7.452936        9.280520   1.000000   0.054226
      6          7.988458        9.966692   1.000000   0.000000
      7         24.563006       24.918581   0.000000   0.000000
      8         27.093425       27.356311   0.000000   0.000000
      9         30.807298       30.919329   0.000000   0.000000
     10         32.656977       32.809201   0.000000   0.000000
     11         36.720936       37.233525   0.000000   0.000000
     12         40.778323       40.798480   0.000000   0.000000
 
  0.4375000E+00  0.1875000E+00  0.6250000E-01  0.2343750E-01
      1          4.564804        5.090527   1.000000   1.000000
      2          6.025565        7.305725   1.000000   1.000000
      3          6.417175        8.055069   1.000000   1.000000
      4          6.979234        8.790177   1.000000   1.000000
      5          8.070356        9.990487   1.000000   0.000000
      6          9.111969       10.709915   0.999217   0.000000
      7         18.977809       19.532543   0.000000   0.000000
      8         26.556286       26.791534   0.000000   0.000000
      9         28.355827       28.620771   0.000000   0.000000
     10         32.239625       32.428708   0.000000   0.000000
     11         38.711547       38.826010   0.000000   0.000000
     12         40.940591       41.204230   0.000000   0.000000
 
 -0.4375000E+00  0.1875000E+00  0.6250000E-01  0.2343750E-01
      1          4.864078        5.905129   1.000000   1.000000
      2          6.040637        7.490017   1.000000   1.000000
      3          6.812053        8.112580   1.000000   1.000000
      4          6.871067        8.652607   1.000000   1.000000
      5          8.245284       10.216131   1.000000   0.000000
      6         11.245757       12.154992   0.000000   0.000000
      7         14.971598       15.880098   0.000000   0.000000
      8         26.023811       26.244918   0.000000   0.000000
      9         27.588285       27.918939   0.000000   0.000000
     10         32.127096       32.222086   0.000000   0.000000
     11         37.840170       38.039610   0.000000   0.000000
     12         41.443078       41.524055   0.000000   0.000000
 
 -0.3125000E+00  0.1875000E+00  0.6250000E-01  0.2343750E-01
      1          4.791749        5.544306   1.000000   1.000000
      2          6.171502        7.511281   1.000000   1.000000
      3          6.503716        7.948071   1.000000   1.000000
      4          6.880473        8.699466   1.000000   1.000000
      5          7.969551        9.881624   1.000000   0.000000
      6          9.913769       11.329886   0.000000   0.000000
      7         17.366686       18.026760   0.000000   0.000000
      8         25.165567       25.457905   0.000000   0.000000
      9         29.182198       29.415633   0.000000   0.000000
     10         33.169523       33.270486   0.000000   0.000000
     11         37.249048       37.441238   0.000000   0.000000
     12         40.837423       40.937449   0.000000   0.000000
 
 -0.1875000E+00  0.1875000E+00  0.6250000E-01  0.2343750E-01
      1          3.790321        3.929785   1.000000   1.000000
      2          5.984258        7.430972   1.000000   1.000000
      3          6.526347        8.254212   1.000000   1.000000
      4          7.056497        8.882015   1.000000   1.000000
      5          7.396841        9.246406   1.000000   0.260985
      6          8.442708       10.321845   1.000000   0.000000
      7         22.633017       23.055906   0.000000   0.000000
      8         25.286674       25.594837   0.000000   0.000000
      9         31.694015       31.818614   0.000000   0.000000
     10         35.052894       35.159787   0.000000   0.000000
     11         36.779675       36.889148   0.000000   0.000000
     12         39.476188       39.792391   0.000000   0.000000
 
 -0.6250000E-01  0.1875000E+00  0.6250000E-01  0.2343750E-01
      1          2.292720        2.313287   1.000000   1.000000
      2          6.177773        7.726679   1.000000   1.000000
      3          6.781518        8.512289   1.000000   1.000000
      4          6.905402        8.627592   1.000000   1.000000
      5          7.272161        9.210452   1.000000   0.646778
      6          7.724722        9.732560   1.000000   0.000000
      7         26.217544       26.515357   0.000000   0.000000
      8         28.787990       28.985293   0.000000   0.000000
      9         33.139300       33.174230   0.000000   0.000000
     10         34.854541       34.876456   0.000000   0.000000
     11         37.818113       38.203390   0.000000   0.000000
     12         39.332843       39.523904   0.000000   0.000000
 
  0.3125000E+00  0.3125000E+00  0.6250000E-01  0.1171875E-01
      1          3.895924        4.158475   1.000000   1.000000
      2          5.551414        7.007824   1.000000   1.000000
      3          6.964252        8.547147   1.000000   1.000000
      4          7.500382        9.298037   1.000000   0.017836
      5          7.804779        9.517575   1.000000   0.000000
      6          7.952869       10.015223   1.000000   0.000000
      7         25.147485       25.455891   0.000000   0.000000
      8         26.712531       27.007220   0.000000   0.000000
      9         26.917019       27.150944   0.000000   0.000000
     10         29.590654       29.812896   0.000000   0.000000
     11         33.414608       33.913505   0.000000   0.000000
     12         45.843390       45.999330   0.000000   0.000000
 
  0.4375000E+00  0.3125000E+00  0.6250000E-01  0.2343750E-01
      1          4.612973        5.368993   1.000000   1.000000
      2          5.370476        6.763621   1.000000   1.000000
      3          6.928285        8.332576   1.000000   1.000000
      4          7.702443        9.585013   1.000000   0.000000
      5          8.111964       10.043575   1.000000   0.000000
      6          9.368001       10.798171   0.000023   0.000000
      7         21.880081       22.255715   0.000000   0.000000
      8         23.780507       24.143230   0.000000   0.000000
      9         24.576312       24.919233   0.000000   0.000000
     10         30.750823       30.970004   0.000000   0.000000
     11         34.669714       35.046155   0.000000   0.000000
     12         44.335403       44.501212   0.000000   0.000000
 
 -0.4375000E+00  0.3125000E+00  0.6250000E-01  0.2343750E-01
      1          5.066633        6.297641   1.000000   1.000000
      2          5.486450        6.775962   1.000000   1.000000
      3          6.672001        8.024097   1.000000   1.000000
      4          7.450389        9.370190   1.000000   0.000017
      5          8.305889       10.255477   1.000000   0.000000
      6         12.374506       13.249758   0.000000   0.000000
      7         16.972316       17.537755   0.000000   0.000000
      8         21.599458       22.083447   0.000000   0.000000
      9         24.811732       25.122583   0.000000   0.000000
     10         31.142959       31.339051   0.000000   0.000000
     11         39.528700       39.788897   0.000000   0.000000
     12         42.532905       42.730434   0.000000   0.000000
 
 -0.3125000E+00  0.3125000E+00  0.6250000E-01  0.2343750E-01
      1          5.489810        6.573387   1.000000   1.000000
      2          5.632482        7.048478   1.000000   1.000000
      3          6.275481        7.621411   1.000000   1.000000
      4          7.272372        9.208913   1.000000   0.662813
      5          8.037050        9.908084   1.000000   0.000000
      6         12.650496       13.566877   0.000000   0.000000
      7         16.827140       17.433742   0.000000   0.000000
      8         20.319273       20.830197   0.000000   0.000000
      9         26.451346       26.770653   0.000000   0.000000
     10         32.007678       32.148132   0.000000   0.000000
     11         40.470567       40.519640   0.000000   0.000000
     12         45.116943       45.124929   0.000000   0.000000
 
 -0.1875000E+00  0.3125000E+00  0.6250000E-01  0.2343750E-01
      1          5.048115        5.594435   1.000000   1.000000
      2          6.000272        7.340350   1.000000   1.000000
      3          6.118504        7.749824   1.000000   1.000000
      4          7.120808        9.011213   1.000000   1.000000
      5          7.709291        9.546333   1.000000   0.000000
      6          9.974011       11.467324   0.000000   0.000000
      7         19.504818       20.034471   0.000000   0.000000
      8         22.390990       22.787163   0.000000   0.000000
      9         28.943894       29.198535   0.000000   0.000000
     10         33.682248       33.802786   0.000000   0.000000
     11         37.838380       37.891280   0.000000   0.000000
     12         42.138682       42.319024   0.000000   0.000000
 
 -0.6250000E-01  0.3125000E+00  0.6250000E-01  0.2343750E-01
      1          3.906026        4.151815   1.000000   1.000000
      2          6.236240        7.523995   1.000000   1.000000
      3          6.537399        8.288004   1.000000   1.000000
      4          6.810049        8.601223   1.000000   1.000000
      5          7.751736        9.635812   1.000000   0.000000
      6          8.329281       10.211381   1.000000   0.000000
      7         20.399209       20.908407   0.000000   0.000000
      8         27.991887       28.183196   0.000000   0.000000
      9         31.442197       31.502778   0.000000   0.000000
     10         33.684322       33.977260   0.000000   0.000000
     11         37.404721       37.547534   0.000000   0.000000
     12         38.821319       38.964311   0.000000   0.000000
 
  0.4375000E+00  0.4375000E+00  0.6250000E-01  0.1171875E-01
      1          4.433815        5.533845   1.000000   1.000000
      2          5.048331        6.417221   1.000000   1.000000
      3          8.024579        9.508684   1.000000   0.000000
      4          8.034243       10.036641   1.000000   0.000000
      5          8.326691       10.305688   1.000000   0.000000
      6         10.077317       10.879803   0.000000   0.000000
      7         20.552709       21.156574   0.000000   0.000000
      8         22.918318       23.173480   0.000000   0.000000
      9         24.070777       24.268508   0.000000   0.000000
     10         28.709517       29.042462   0.000000   0.000000
     11         32.142239       32.561291   0.000000   0.000000
     12         46.132691       49.898950   0.000000   0.000000
 
 -0.4375000E+00  0.4375000E+00  0.6250000E-01  0.2343750E-01
      1          4.572618        5.838670   1.000000   1.000000
      2          5.069530        6.412548   1.000000   1.000000
      3          7.674419        9.134108   1.000000   0.994393
      4          7.976707       10.041303   1.000000   0.000000
      5          8.454206       10.373244   1.000000   0.000000
      6         12.493404       12.997764   0.000000   0.000000
      7         18.458357       19.243945   0.000000   0.000000
      8         20.577614       20.902552   0.000000   0.000000
      9         22.947409       23.190951   0.000000   0.000000
     10         30.117103       30.388047   0.000000   0.000000
     11         34.029566       34.402653   0.000000   0.000000
     12         46.075832       47.365721   0.000000   0.000000
 
 -0.3125000E+00  0.4375000E+00  0.6250000E-01  0.2343750E-01
      1          5.025855        6.384011   1.000000   1.000000
      2          5.404279        6.673983   1.000000   1.000000
      3          6.829325        8.177906   1.000000   1.000000
      4          7.598998        9.591808   1.000000   0.000000
      5          8.302135       10.205735   1.000000   0.000000
      6         14.336932       14.948744   0.000000   0.000000
      7         16.396217       16.949566   0.000000   0.000000
      8         19.141364       19.792222   0.000000   0.000000
      9         24.372717       24.675991   0.000000   0.000000
     10         30.978189       31.190977   0.000000   0.000000
     11         39.467510       39.773840   0.000000   0.000000
     12         43.696233       43.760085   0.000000   0.000000
 
 -0.1875000E+00  0.4375000E+00  0.6250000E-01  0.2343750E-01
      1          5.201172        6.314792   1.000000   1.000000
      2          5.781158        7.158344   1.000000   1.000000
      3          6.544886        7.877339   1.000000   1.000000
      4          7.066404        8.937955   1.000000   1.000000
      5          8.163363       10.096913   1.000000   0.000000
      6         12.397043       13.233995   0.000000   0.000000
      7         15.244478       16.064379   0.000000   0.000000
      8         23.016721       23.400221   0.000000   0.000000
      9         26.798327       27.110066   0.000000   0.000000
     10         32.037170       32.153373   0.000000   0.000000
     11         39.177438       39.313532   0.000000   0.000000
     12         43.534956       43.592259   0.000000   0.000000
 
 -0.6250000E-01  0.4375000E+00  0.6250000E-01  0.2343750E-01
      1          4.560057        5.459900   1.000000   1.000000
      2          6.306717        7.872085   1.000000   1.000000
      3          6.645519        8.233122   1.000000   1.000000
      4          7.154289        8.444665   1.000000   1.000000
      5          8.195548       10.161164   1.000000   0.000000
      6          9.763065       11.018870   0.000000   0.000000
      7         15.691983       16.533755   0.000000   0.000000
      8         27.994433       28.075515   0.000000   0.000000
      9         29.781625       30.047010   0.000000   0.000000
     10         32.344113       32.494838   0.000000   0.000000
     11         36.792687       37.032392   0.000000   0.000000
     12         38.939522       39.080685   0.000000   0.000000
 
 -0.4375000E+00 -0.4375000E+00  0.6250000E-01  0.1171875E-01
      1          4.384312        5.621822   1.000000   1.000000
      2          4.933847        6.283856   1.000000   1.000000
      3          8.120039        9.954245   1.000000   0.000000
      4          8.278461       10.225598   1.000000   0.000000
      5          8.464678       10.390568   1.000000   0.000000
      6         11.601175       11.884649   0.000000   0.000000
      7         18.338030       19.167308   0.000000   0.000000
      8         22.377053       22.596541   0.000000   0.000000
      9         23.486891       23.651103   0.000000   0.000000
     10         28.561623       28.920611   0.000000   0.000000
     11         31.973579       32.393527   0.000000   0.000000
     12         46.109367       49.960791   0.000000   0.000000
 
 -0.3125000E+00 -0.4375000E+00  0.6250000E-01  0.2343750E-01
      1          4.635461        5.768794   1.000000   1.000000
      2          5.173724        6.533942   1.000000   1.000000
      3          7.375709        8.757694   1.000000   1.000000
      4          7.918150        9.898659   1.000000   0.000000
      5          8.319964       10.258901   1.000000   0.000000
      6         10.906538       11.826083   0.000000   0.000000
      7         20.636718       21.131490   0.000000   0.000000
      8         21.189276       21.615680   0.000000   0.000000
      9         23.463063       23.732523   0.000000   0.000000
     10         30.319144       30.571121   0.000000   0.000000
     11         34.222870       34.592590   0.000000   0.000000
     12         45.695645       46.148179   0.000000   0.000000
 
 -0.1875000E+00 -0.4375000E+00  0.6250000E-01  0.2343750E-01
      1          4.964091        5.876331   1.000000   1.000000
      2          5.712104        7.023852   1.000000   1.000000
      3          6.484851        7.934500   1.000000   1.000000
      4          7.215691        9.068493   1.000000   0.999994
      5          8.249512       10.217012   1.000000   0.000000
      6         10.503827       11.711303   0.000000   0.000000
      7         17.826495       18.399613   0.000000   0.000000
      8         24.624365       24.939818   0.000000   0.000000
      9         25.759637       26.104066   0.000000   0.000000
     10         31.522630       31.698903   0.000000   0.000000
     11         39.436769       39.597344   0.000000   0.000000
     12         41.493223       41.814125   0.000000   0.000000
 
 -0.3125000E+00 -0.3125000E+00  0.6250000E-01  0.1171875E-01
      1          4.385194        5.110090   1.000000   1.000000
      2          5.263393        6.668741   1.000000   1.000000
      3          7.523924        8.817138   1.000000   1.000000
      4          7.810204        9.696116   1.000000   0.000000
      5          8.134081       10.071038   1.000000   0.000000
      6          8.600796       10.175568   1.000000   0.000000
      7         23.455692       23.822609   0.000000   0.000000
      8         24.042381       24.387674   0.000000   0.000000
      9         25.176947       25.424647   0.000000   0.000000
     10         29.027570       29.311132   0.000000   0.000000
     11         32.562110       32.997016   0.000000   0.000000
     12         46.043729       48.248512   0.000000   0.000000
 
 -0.1875000E+00 -0.3125000E+00  0.6250000E-01  0.2343750E-01
      1          4.156054        4.446666   1.000000   1.000000
      2          5.632352        7.070912   1.000000   1.000000
      3          6.625049        8.264652   1.000000   1.000000
      4          7.403600        9.218816   1.000000   0.555698
      5          7.814458        9.648801   1.000000   0.000000
      6          8.428839       10.263876   1.000000   0.000000
      7         23.105187       23.485688   0.000000   0.000000
      8         25.544061       25.831747   0.000000   0.000000
      9         27.487331       27.767746   0.000000   0.000000
     10         31.475871       31.659543   0.000000   0.000000
     11         35.470785       35.886604   0.000000   0.000000
     12         42.645162       42.723809   0.000000   0.000000
 
 -0.1875000E+00 -0.1875000E+00  0.6250000E-01  0.1171875E-01
      1          2.931244        2.992182   1.000000   1.000000
      2          5.872496        7.389244   1.000000   1.000000
      3          6.865718        8.655670   1.000000   1.000000
      4          7.178576        8.919863   1.000000   1.000000
      5          7.359317        9.121697   1.000000   0.998055
      6          7.785416        9.845152   1.000000   0.000000
      7         26.696809       26.990542   0.000000   0.000000
      8         28.580075       28.905436   0.000000   0.000000
      9         29.540073       29.565784   0.000000   0.000000
     10         30.852549       31.000040   0.000000   0.000000
     11         35.020952       35.640747   0.000000   0.000000
     12         43.427189       43.384145   0.000000   0.000000
 
  0.1875000E+00  0.1875000E+00  0.1875000E+00  0.3906250E-02
      1          1.939465        1.952448   1.000000   1.000000
      2          6.337016        7.887539   1.000000   1.000000
      3          6.752295        8.468413   1.000000   1.000000
      4          6.752295        8.468413   1.000000   1.000000
      5          7.481399        9.479648   1.000000   0.000000
      6          7.481399        9.479648   1.000000   0.000000
      7         25.943703       26.243779   0.000000   0.000000
      8         32.163499       31.907350   0.000000   0.000000
      9         33.782658       34.101616   0.000000   0.000000
     10         33.782658       34.101616   0.000000   0.000000
     11         39.222127       39.095037   0.000000   0.000000
     12         39.631271       39.719768   0.000000   0.000000
 
  0.3125000E+00  0.1875000E+00  0.1875000E+00  0.1171875E-01
      1          2.942891        2.994701   1.000000   1.000000
      2          6.123006        7.622958   1.000000   1.000000
      3          6.701028        8.426801   1.000000   1.000000
      4          6.951408        8.718882   1.000000   1.000000
      5          7.239441        9.167112   1.000000   0.945473
      6          8.011441        9.963531   1.000000   0.000000
      7         24.309513       24.676933   0.000000   0.000000
      8         26.926707       27.183769   0.000000   0.000000
      9         34.395950       34.322924   0.000000   0.000000
     10         36.236284       36.211559   0.000000   0.000000
     11         36.273647       36.434686   0.000000   0.000000
     12         37.861531       38.242673   0.000000   0.000000
 
  0.4375000E+00  0.1875000E+00  0.1875000E+00  0.1171875E-01
      1          4.459284        4.740382   1.000000   1.000000
      2          6.029288        7.416345   1.000000   1.000000
      3          6.378634        8.054617   1.000000   1.000000
      4          6.988091        8.876369   1.000000   1.000000
      5          7.473520        9.300910   1.000000   0.014558
      6          9.061415       10.809968   0.999998   0.000000
      7         20.945805       21.430640   0.000000   0.000000
      8         23.697950       24.053504   0.000000   0.000000
      9         32.473231       32.450339   0.000000   0.000000
     10         32.729878       33.073222   0.000000   0.000000
     11         38.166822       38.092216   0.000000   0.000000
     12         39.586534       39.817663   0.000000   0.000000
 
 -0.4375000E+00  0.1875000E+00  0.1875000E+00  0.1171875E-01
      1          4.993851        5.953866   1.000000   1.000000
      2          6.035922        7.471968   1.000000   1.000000
      3          6.635855        7.920180   1.000000   1.000000
      4          6.890658        8.739924   1.000000   1.000000
      5          8.024006        9.946666   1.000000   0.000000
      6         11.015775       12.135176   0.000000   0.000000
      7         16.086695       16.844950   0.000000   0.000000
      8         23.947293       24.287639   0.000000   0.000000
      9         29.791415       30.127623   0.000000   0.000000
     10         30.873800       30.913756   0.000000   0.000000