 vasp.6.3.2 27Jun22 (build Aug 12 2022 00:53:59) complex                        
  
 executed on               tv2STD date 2024.12.03  02:19:44
 running   28 mpi-ranks, with    1 threads/rank
 distrk:  each k-point on   28 cores,    1 groups
 distr:  one band on NCORE=   7 cores,    4 groups


--------------------------------------------------------------------------------------------------------


 INCAR:
   SYSTEM = Co-fcc
   NWRITE = 2    write-flag
   ISTART = 0    job   : 0-new, 1-cont, 2-samecut
   ICHARG = 2    charge: 0-wave, 1-file, 2-atom, >10-const
   INIWAV = 1    electr: 0-lowe 1-rand  2-diag
   ENCUT = 400.0     energy cutoff in eV
   PREC = Accurate      normal | accurate
   ADDGRID = .FALSE.  (use fine grid)
   NELM = 100     number of ELM steps
   EDIFF = 1E-06    energy stopping-criterion for ELM
   LREAL = .FALSE.      real-space projection (.FALSE., .TRUE., On, Auto)
   ALGO = Normal     Normal, Fast, Very_Fast
   LWAVE = .TRUE.
   LCHARG = .TRUE.
   NSW = 100       max number of geometry steps
   IBRION = 2     ionic relax: 0-MD, 1-quasi-Newton, 2-CG, 3-Damped MD
   EDIFFG = -0.02  force (eV/A) stopping-criterion for geometry steps
   ISIF = 2     (1:force\=y stress\=trace only ions\=y shape\=n volume\=n)
   ISYM = 1     (1-use symmetry, 0-no symmetry)
   ISMEAR = 0     (-1-Fermi, 1-Methfessel/Paxton)
   SIGMA = 0.05   broadening in eV
   LORBIT = 11
   NPAR = 4
   ISPIN = 2
   MAGMOM = 1*3

 POTCAR:    PAW_PBE Co 02Aug2007                  
 POTCAR:    PAW_PBE Co 02Aug2007                  
   SHA256 =  0e690c60710354995174544f52f9f2c30879afabeffe3b3fbd4001cb294e56d4 Co/POTCAR             
   COPYR  = (c) Copyright 02Aug2007 Georg Kresse                                                    
   COPYR  = This file is part of the software VASP. Any use, copying, and all other rights are regul
   COPYR  = If you do not have a valid VASP license, you may not use, copy or distribute this file. 
   VRHFIN =Co: d8 s1                                                                                
   LEXCH  = PE                                                                                      
   EATOM  =   813.3670 eV,   59.7808 Ry                                                             
                                                                                                    
   TITEL  = PAW_PBE Co 02Aug2007                                                                    
   LULTRA =        F    use ultrasoft PP ?                                                          
   IUNSCR =        1    unscreen: 0-lin 1-nonlin 2-no                                               
   RPACOR =    2.000    partial core radius                                                         
   POMASS =   58.933; ZVAL   =    9.000    mass and valenz                                          
   RCORE  =    2.300    outmost cutoff radius                                                       
   RWIGS  =    2.460; RWIGS  =    1.302    wigner-seitz radius (au A)                               
   ENMAX  =  267.968; ENMIN  =  200.976 eV                                                          
   RCLOC  =    1.203    cutoff for local pot                                                        
   LCOR   =        T    correct aug charges                                                         
   LPAW   =        T    paw PP                                                                      
   EAUG   =  477.818                                                                                
   DEXC   =    0.000                                                                                
   RMAX   =    2.360    core radius for proj-oper                                                   
   RAUG   =    1.300    factor for augmentation sphere                                              
   RDEP   =    2.393    radius for radial grids                                                     
   RDEPT  =    1.864    core radius for aug-charge                                                  
                                                                                                    
   Atomic configuration                                                                             
    9 entries                                                                                       
     n  l   j            E        occ.                                                              
     1  0  0.50     -7587.6674   2.0000                                                             
     2  0  0.50      -893.6084   2.0000                                                             
     2  1  1.50      -764.5805   6.0000                                                             
     3  0  0.50       -97.5973   2.0000                                                             
     3  1  1.50       -60.9648   6.0000                                                             
     3  2  2.50        -4.2382   8.0000                                                             
     4  0  0.50        -4.3746   1.0000                                                             
     4  1  1.50        -4.0817   0.0000                                                             
     4  3  2.50        -1.3606   0.0000                                                             
   Description                                                                                      
     l       E           TYP  RCUT    TYP  RCUT                                                     
     2     -4.2382362     23  2.300                                                                 
     2     -5.5988188     23  2.300                                                                 
     0     -4.3745797     23  2.300                                                                 
     0      5.7660125     23  2.300                                                                 
     1     -2.7211652     23  2.300                                                                 
     1     16.9860234     23  2.300                                                                 
  local pseudopotential read in
  partial core-charges read in
  partial kinetic energy density read in
  atomic valenz-charges read in
  non local Contribution for L=           2  read in
    real space projection operators read in
  non local Contribution for L=           2  read in
    real space projection operators read in
  non local Contribution for L=           0  read in
    real space projection operators read in
  non local Contribution for L=           0  read in
    real space projection operators read in
  non local Contribution for L=           1  read in
    real space projection operators read in
  non local Contribution for L=           1  read in
    real space projection operators read in
    PAW grid and wavefunctions read in
 
   number of l-projection  operators is LMAX  =           6
   number of lm-projection operators is LMMAX =          18
 
  PAW_PBE Co 02Aug2007                  :
 energy of atom  1       EATOM= -813.3670
 kinetic energy error for atom=    0.0093 (will be added to EATOM!!)
 
 
 POSCAR: Co
  positions in cartesian coordinates
  No initial velocities read in
 exchange correlation table for  LEXCH =        8
   RHO(1)=    0.500       N(1)  =     2000
   RHO(2)=  100.500       N(2)  =     4000
 


--------------------------------------------------------------------------------------------------------


 ion  position               nearest neighbor table
   1  0.000  0.000  0.000-
 
  LATTYP: Found a face centered cubic cell.
 ALAT       =     3.6137911668
  
  Lattice vectors:
  
 A1 = (   0.0000000000,   1.8068955834,   1.8068955834)
 A2 = (   1.8068955834,   0.0000000000,   1.8068955834)
 A3 = (   1.8068955834,   1.8068955834,   0.0000000000)


Analysis of symmetry for initial positions (statically):
=====================================================================
 Subroutine PRICEL returns:
 Original cell was already a primitive cell.
 

 Routine SETGRP: Setting up the symmetry group for a 
 face centered cubic supercell.


 Subroutine GETGRP returns: Found 48 space group operations
 (whereof 48 operations were pure point group operations)
 out of a pool of 48 trial point group operations.


The static configuration has the point symmetry O_h .


Analysis of symmetry for dynamics (positions and initial velocities):
=====================================================================
 Subroutine PRICEL returns:
 Original cell was already a primitive cell.
 

 Routine SETGRP: Setting up the symmetry group for a 
 face centered cubic supercell.


 Subroutine GETGRP returns: Found 48 space group operations
 (whereof 48 operations were pure point group operations)
 out of a pool of 48 trial point group operations.


The dynamic configuration has the point symmetry O_h .


Analysis of structural, dynamic, and magnetic symmetry:
=====================================================================
 Subroutine PRICEL returns:
 Original cell was already a primitive cell.
 

 Routine SETGRP: Setting up the symmetry group for a 
 face centered cubic supercell.


 Subroutine GETGRP returns: Found 48 space group operations
 (whereof 48 operations were pure point group operations)
 out of a pool of 48 trial point group operations.


The overall configuration has the point symmetry O_h .


 Subroutine INISYM returns: Found 48 space group operations
 (whereof 48 operations are pure point group operations),
 and found     1 'primitive' translations


----------------------------------------------------------------------------------------

                                     Primitive cell                                     

  volume of cell :      11.7986

  direct lattice vectors                    reciprocal lattice vectors
     0.000000000  1.806895583  1.806895583    -0.276717706  0.276717706  0.276717706
     1.806895583  0.000000000  1.806895583     0.276717706 -0.276717706  0.276717706
     1.806895583  1.806895583  0.000000000     0.276717706  0.276717706 -0.276717706

  length of vectors
     2.555336240  2.555336240  2.555336240     0.479289125  0.479289125  0.479289125

  position of ions in fractional coordinates (direct lattice)
     0.000000000  0.000000000  0.000000000

  ion indices of the primitive-cell ions
   primitive index   ion index
                 1           1

----------------------------------------------------------------------------------------

 
 
 KPOINTS: Automatic mesh                          

Automatic generation of k-mesh.
 Grid dimensions read from file:
 generate k-points for:    8    8    8

 Generating k-lattice:

  Cartesian coordinates                     Fractional coordinates (reciprocal lattice)
    -0.034589713  0.034589713  0.034589713     0.125000000  0.000000000  0.000000000
     0.034589713 -0.034589713  0.034589713     0.000000000  0.125000000  0.000000000
     0.034589713  0.034589713 -0.034589713     0.000000000  0.000000000  0.125000000

  Length of vectors
     0.059911141  0.059911141  0.059911141

  Shift w.r.t. Gamma in fractional coordinates (k-lattice)
     0.500000000  0.500000000  0.500000000

 
 Subroutine IBZKPT returns following result:
 ===========================================
 
 Found     60 irreducible k-points:
 
 Following reciprocal coordinates:
            Coordinates               Weight
  0.062500  0.062500  0.062500      8.000000
  0.187500  0.062500  0.062500     24.000000
  0.312500  0.062500  0.062500     24.000000
  0.437500  0.062500  0.062500     24.000000
 -0.437500  0.062500  0.062500     24.000000
 -0.312500  0.062500  0.062500     24.000000
 -0.187500  0.062500  0.062500     24.000000
 -0.062500  0.062500  0.062500     24.000000
  0.187500  0.187500  0.062500     24.000000
  0.312500  0.187500  0.062500     48.000000
  0.437500  0.187500  0.062500     48.000000
 -0.437500  0.187500  0.062500     48.000000
 -0.312500  0.187500  0.062500     48.000000
 -0.187500  0.187500  0.062500     48.000000
 -0.062500  0.187500  0.062500     48.000000
  0.312500  0.312500  0.062500     24.000000
  0.437500  0.312500  0.062500     48.000000
 -0.437500  0.312500  0.062500     48.000000
 -0.312500  0.312500  0.062500     48.000000
 -0.187500  0.312500  0.062500     48.000000
 -0.062500  0.312500  0.062500     48.000000
  0.437500  0.437500  0.062500     24.000000
 -0.437500  0.437500  0.062500     48.000000
 -0.312500  0.437500  0.062500     48.000000
 -0.187500  0.437500  0.062500     48.000000
 -0.062500  0.437500  0.062500     48.000000
 -0.437500 -0.437500  0.062500     24.000000
 -0.312500 -0.437500  0.062500     48.000000
 -0.187500 -0.437500  0.062500     48.000000
 -0.312500 -0.312500  0.062500     24.000000
 -0.187500 -0.312500  0.062500     48.000000
 -0.187500 -0.187500  0.062500     24.000000
  0.187500  0.187500  0.187500      8.000000
  0.312500  0.187500  0.187500     24.000000
  0.437500  0.187500  0.187500     24.000000
 -0.437500  0.187500  0.187500     24.000000
 -0.312500  0.187500  0.187500     24.000000
 -0.187500  0.187500  0.187500     24.000000
  0.312500  0.312500  0.187500     24.000000
  0.437500  0.312500  0.187500     48.000000
 -0.437500  0.312500  0.187500     48.000000
 -0.312500  0.312500  0.187500     48.000000
 -0.187500  0.312500  0.187500     48.000000
  0.437500  0.437500  0.187500     24.000000
 -0.437500  0.437500  0.187500     48.000000
 -0.312500  0.437500  0.187500     48.000000
 -0.187500  0.437500  0.187500     48.000000
 -0.437500 -0.437500  0.187500     24.000000
 -0.312500 -0.437500  0.187500     48.000000
 -0.312500 -0.312500  0.187500     24.000000
  0.312500  0.312500  0.312500      8.000000
  0.437500  0.312500  0.312500     24.000000
 -0.437500  0.312500  0.312500     24.000000
 -0.312500  0.312500  0.312500     24.000000
  0.437500  0.437500  0.312500     24.000000
 -0.437500  0.437500  0.312500     48.000000
 -0.312500  0.437500  0.312500     48.000000
 -0.437500 -0.437500  0.312500     24.000000
  0.437500  0.437500  0.437500      8.000000
 -0.437500  0.437500  0.437500     24.000000
 
 Following cartesian coordinates:
            Coordinates               Weight
  0.017295  0.017295  0.017295      8.000000
 -0.017295  0.051885  0.051885     24.000000
 -0.051885  0.086474  0.086474     24.000000
 -0.086474  0.121064  0.121064     24.000000
  0.155654 -0.121064 -0.121064     24.000000
  0.121064 -0.086474 -0.086474     24.000000
  0.086474 -0.051885 -0.051885     24.000000
  0.051885 -0.017295 -0.017295     24.000000
  0.017295  0.017295  0.086474     24.000000
 -0.017295  0.051885  0.121064     48.000000
 -0.051885  0.086474  0.155654     48.000000
  0.190243 -0.155654 -0.086474     48.000000
  0.155654 -0.121064 -0.051885     48.000000
  0.121064 -0.086474 -0.017295     48.000000
  0.086474 -0.051885  0.017295     48.000000
  0.017295  0.017295  0.155654     24.000000
 -0.017295  0.051885  0.190243     48.000000
  0.224833 -0.190243 -0.051885     48.000000
  0.190243 -0.155654 -0.017295     48.000000
  0.155654 -0.121064  0.017295     48.000000
  0.121064 -0.086474  0.051885     48.000000
  0.017295  0.017295  0.224833     24.000000
  0.259423 -0.224833 -0.017295     48.000000
  0.224833 -0.190243  0.017295     48.000000
  0.190243 -0.155654  0.051885     48.000000
  0.155654 -0.121064  0.086474     48.000000
  0.017295  0.017295 -0.259423     24.000000
 -0.017295  0.051885 -0.224833     48.000000
 -0.051885  0.086474 -0.190243     48.000000
  0.017295  0.017295 -0.190243     24.000000
 -0.017295  0.051885 -0.155654     48.000000
  0.017295  0.017295 -0.121064     24.000000
  0.051885  0.051885  0.051885      8.000000
  0.017295  0.086474  0.086474     24.000000
 -0.017295  0.121064  0.121064     24.000000
  0.224833 -0.121064 -0.121064     24.000000
  0.190243 -0.086474 -0.086474     24.000000
  0.155654 -0.051885 -0.051885     24.000000
  0.051885  0.051885  0.121064     24.000000
  0.017295  0.086474  0.155654     48.000000
  0.259423 -0.155654 -0.086474     48.000000
  0.224833 -0.121064 -0.051885     48.000000
  0.190243 -0.086474 -0.017295     48.000000
  0.051885  0.051885  0.190243     24.000000
  0.294013 -0.190243 -0.051885     48.000000
  0.259423 -0.155654 -0.017295     48.000000
  0.224833 -0.121064  0.017295     48.000000
  0.051885  0.051885 -0.294013     24.000000
  0.017295  0.086474 -0.259423     48.000000
  0.051885  0.051885 -0.224833     24.000000
  0.086474  0.086474  0.086474      8.000000
  0.051885  0.121064  0.121064     24.000000
  0.294013 -0.121064 -0.121064     24.000000
  0.259423 -0.086474 -0.086474     24.000000
  0.086474  0.086474  0.155654     24.000000
  0.328602 -0.155654 -0.086474     48.000000
  0.294013 -0.121064 -0.051885     48.000000
  0.086474  0.086474 -0.328602     24.000000
  0.121064  0.121064  0.121064      8.000000
  0.363192 -0.121064 -0.121064     24.000000
 


--------------------------------------------------------------------------------------------------------




 Dimension of arrays:
   k-points           NKPTS =     60   k-points in BZ     NKDIM =     60   number of bands    NBANDS=     12
   number of dos      NEDOS =    301   number of ions     NIONS =      1
   non local maximal  LDIM  =      6   non local SUM 2l+1 LMDIM =     18
   total plane-waves  NPLWV =   5832
   max r-space proj   IRMAX =      1   max aug-charges    IRDMAX=  19692
   dimension x,y,z NGX =    18 NGY =   18 NGZ =   18
   dimension x,y,z NGXF=    36 NGYF=   36 NGZF=   36
   support grid    NGXF=    36 NGYF=   36 NGZF=   36
   ions per type =               1
   NGX,Y,Z   is equivalent  to a cutoff of  11.71, 11.71, 11.71 a.u.
   NGXF,Y,Z  is equivalent  to a cutoff of  23.42, 23.42, 23.42 a.u.

 SYSTEM =  Co-fcc                                  
 POSCAR =  Co                                      

 Startparameter for this run:
   NWRITE =      2    write-flag & timer
   PREC   = accura    normal or accurate (medium, high low for compatibility)
   ISTART =      0    job   : 0-new  1-cont  2-samecut
   ICHARG =      2    charge: 1-file 2-atom 10-const
   ISPIN  =      2    spin polarized calculation?
   LNONCOLLINEAR =      F non collinear calculations
   LSORBIT =      F    spin-orbit coupling
   INIWAV =      1    electr: 0-lowe 1-rand  2-diag
   LASPH  =      F    aspherical Exc in radial PAW
 Electronic Relaxation 1
   ENCUT  =  400.0 eV  29.40 Ry    5.42 a.u.   4.17  4.17  4.17*2*pi/ulx,y,z
   ENINI  =  400.0     initial cutoff
   ENAUG  =  477.8 eV  augmentation charge cutoff
   NELM   =    100;   NELMIN=  2; NELMDL= -5     # of ELM steps 
   EDIFF  = 0.1E-05   stopping-criterion for ELM
   LREAL  =      F    real-space projection
   NLSPLINE    = F    spline interpolate recip. space projectors
   LCOMPAT=      F    compatible to vasp.4.4
   GGA_COMPAT  = T    GGA compatible to vasp.4.4-vasp.4.6
   LMAXPAW     = -100 max onsite density
   LMAXMIX     =    2 max onsite mixed and CHGCAR
   VOSKOWN=      0    Vosko Wilk Nusair interpolation
   ROPT   =    0.00000
 Ionic relaxation
   EDIFFG = -.2E-01   stopping-criterion for IOM
   NSW    =    100    number of steps for IOM
   NBLOCK =      1;   KBLOCK =    100    inner block; outer block 
   IBRION =      2    ionic relax: 0-MD 1-quasi-New 2-CG
   NFREE  =      1    steps in history (QN), initial steepest desc. (CG)
   ISIF   =      2    stress and relaxation
   IWAVPR =     11    prediction:  0-non 1-charg 2-wave 3-comb
   ISYM   =      1    0-nonsym 1-usesym 2-fastsym
   LCORR  =      T    Harris-Foulkes like correction to forces

   POTIM  = 0.5000    time-step for ionic-motion
   TEIN   =    0.0    initial temperature
   TEBEG  =    0.0;   TEEND  =   0.0 temperature during run
   SMASS  =  -3.00    Nose mass-parameter (am)
   estimated Nose-frequenzy (Omega)   =  0.10E-29 period in steps = 0.13E+47 mass=  -0.149E-27a.u.
   SCALEE = 1.0000    scale energy and forces
   NPACO  =    256;   APACO  = 10.0  distance and # of slots for P.C.
   PSTRESS=    0.0 pullay stress

  Mass of Ions in am
   POMASS =  58.93
  Ionic Valenz
   ZVAL   =   9.00
  Atomic Wigner-Seitz radii
   RWIGS  =  -1.00
  virtual crystal weights 
   VCA    =   1.00
   NELECT =       9.0000    total number of electrons
   NUPDOWN=      -1.0000    fix difference up-down

 DOS related values:
   EMIN   =  10.00;   EMAX   =-10.00  energy-range for DOS
   EFERMI =   0.00
   ISMEAR =     0;   SIGMA  =   0.05  broadening in eV -4-tet -1-fermi 0-gaus

 Electronic relaxation 2 (details)
   IALGO  =     38    algorithm
   LDIAG  =      T    sub-space diagonalisation (order eigenvalues)
   LSUBROT=      F    optimize rotation matrix (better conditioning)
   TURBO    =      0    0=normal 1=particle mesh
   IRESTART =      0    0=no restart 2=restart with 2 vectors
   NREBOOT  =      0    no. of reboots
   NMIN     =      0    reboot dimension
   EREF     =   0.00    reference energy to select bands
   IMIX   =      4    mixing-type and parameters
     AMIX     =   0.40;   BMIX     =  1.00
     AMIX_MAG =   1.60;   BMIX_MAG =  1.00
     AMIN     =   0.10
     WC   =   100.;   INIMIX=   1;  MIXPRE=   1;  MAXMIX= -45

 Intra band minimization:
   WEIMIN = 0.0010     energy-eigenvalue tresh-hold
   EBREAK =  0.21E-07  absolut break condition
   DEPER  =   0.30     relativ break condition  

   TIME   =   0.40     timestep for ELM

  volume/ion in A,a.u.               =      11.80        79.62
  Fermi-wavevector in a.u.,A,eV,Ry     =   1.495820  2.826690 30.442721  2.237477
  Thomas-Fermi vector in A             =   2.607916
 
 Write flags
   LWAVE        =      T    write WAVECAR
   LDOWNSAMPLE  =      F    k-point downsampling of WAVECAR
   LCHARG       =      T    write CHGCAR
   LVTOT        =      F    write LOCPOT, total local potential
   LVHAR        =      F    write LOCPOT, Hartree potential only
   LELF         =      F    write electronic localiz. function (ELF)
   LORBIT       =     11    0 simple, 1 ext, 2 COOP (PROOUT), +10 PAW based schemes


 Dipole corrections
   LMONO  =      F    monopole corrections only (constant potential shift)
   LDIPOL =      F    correct potential (dipole corrections)
   IDIPOL =      0    1-x, 2-y, 3-z, 4-all directions 
   EPSILON=  1.0000000 bulk dielectric constant

 Exchange correlation treatment:
   GGA     =    --    GGA type
   LEXCH   =     8    internal setting for exchange type
   LIBXC   =     F    Libxc                    
   VOSKOWN =     0    Vosko Wilk Nusair interpolation
   LHFCALC =     F    Hartree Fock is set to
   LHFONE  =     F    Hartree Fock one center treatment
   AEXX    =    0.0000 exact exchange contribution

 Linear response parameters
   LEPSILON=     F    determine dielectric tensor
   LRPA    =     F    only Hartree local field effects (RPA)
   LNABLA  =     F    use nabla operator in PAW spheres
   LVEL    =     F    velocity operator in full k-point grid
   CSHIFT  =0.1000    complex shift for real part using Kramers Kronig
   OMEGAMAX=  -1.0    maximum frequency
   DEG_THRESHOLD= 0.2000000E-02 threshold for treating states as degnerate
   RTIME   =   -0.100 relaxation time in fs
  (WPLASMAI=    0.000 imaginary part of plasma frequency in eV, 0.658/RTIME)
   DFIELD  = 0.0000000 0.0000000 0.0000000 field for delta impulse in time
 
  Optional k-point grid parameters
   LKPOINTS_OPT  =     F    use optional k-point grid
   KPOINTS_OPT_MODE=     1    mode for optional k-point grid
 
 Orbital magnetization related:
   ORBITALMAG=     F  switch on orbital magnetization
   LCHIMAG   =     F  perturbation theory with respect to B field
   DQ        =  0.001000  dq finite difference perturbation B field
   LLRAUG    =     F  two centre corrections for induced B field



--------------------------------------------------------------------------------------------------------


 conjugate gradient relaxation of ions
 charge density and potential will be updated during run
 spin polarized calculation
 Variant of blocked Davidson
 Davidson routine will perform the subspace rotation
 perform sub-space diagonalisation
    after iterative eigenvector-optimisation
 modified Broyden-mixing scheme, WC =      100.0
 initial mixing is a Kerker type mixing with AMIX =  0.4000 and BMIX =      1.0000
 Hartree-type preconditioning will be used
 using additional bands            7
 reciprocal scheme for non local part
 use partial core corrections
 calculate Harris-corrections to forces 
   (improved forces if not selfconsistent)
 use gradient corrections 
 use of overlap-Matrix (Vanderbilt PP)
 Gauss-broadening in eV      SIGMA  =   0.05


--------------------------------------------------------------------------------------------------------


  energy-cutoff  :      400.00
  volume of cell :       11.80
      direct lattice vectors                 reciprocal lattice vectors
     0.000000000  1.806895583  1.806895583    -0.276717706  0.276717706  0.276717706
     1.806895583  0.000000000  1.806895583     0.276717706 -0.276717706  0.276717706
     1.806895583  1.806895583  0.000000000     0.276717706  0.276717706 -0.276717706

  length of vectors
     2.555336240  2.555336240  2.555336240     0.479289125  0.479289125  0.479289125


 
 k-points in units of 2pi/SCALE and weight: Automatic mesh                          
   0.01729486  0.01729486  0.01729486       0.004
  -0.01729486  0.05188457  0.05188457       0.012
  -0.05188457  0.08647428  0.08647428       0.012
  -0.08647428  0.12106400  0.12106400       0.012
   0.15565371 -0.12106400 -0.12106400       0.012
   0.12106400 -0.08647428 -0.08647428       0.012
   0.08647428 -0.05188457 -0.05188457       0.012
   0.05188457 -0.01729486 -0.01729486       0.012
   0.01729486  0.01729486  0.08647428       0.012
  -0.01729486  0.05188457  0.12106400       0.023
  -0.05188457  0.08647428  0.15565371       0.023
   0.19024342 -0.15565371 -0.08647428       0.023
   0.15565371 -0.12106400 -0.05188457       0.023
   0.12106400 -0.08647428 -0.01729486       0.023
   0.08647428 -0.05188457  0.01729486       0.023
   0.01729486  0.01729486  0.15565371       0.012
  -0.01729486  0.05188457  0.19024342       0.023
   0.22483314 -0.19024342 -0.05188457       0.023
   0.19024342 -0.15565371 -0.01729486       0.023
   0.15565371 -0.12106400  0.01729486       0.023
   0.12106400 -0.08647428  0.05188457       0.023
   0.01729486  0.01729486  0.22483314       0.012
   0.25942285 -0.22483314 -0.01729486       0.023
   0.22483314 -0.19024342  0.01729486       0.023
   0.19024342 -0.15565371  0.05188457       0.023
   0.15565371 -0.12106400  0.08647428       0.023
   0.01729486  0.01729486 -0.25942285       0.012
  -0.01729486  0.05188457 -0.22483314       0.023
  -0.05188457  0.08647428 -0.19024342       0.023
   0.01729486  0.01729486 -0.19024342       0.012
  -0.01729486  0.05188457 -0.15565371       0.023
   0.01729486  0.01729486 -0.12106400       0.012
   0.05188457  0.05188457  0.05188457       0.004
   0.01729486  0.08647428  0.08647428       0.012
  -0.01729486  0.12106400  0.12106400       0.012
   0.22483314 -0.12106400 -0.12106400       0.012
   0.19024342 -0.08647428 -0.08647428       0.012
   0.15565371 -0.05188457 -0.05188457       0.012
   0.05188457  0.05188457  0.12106400       0.012
   0.01729486  0.08647428  0.15565371       0.023
   0.25942285 -0.15565371 -0.08647428       0.023
   0.22483314 -0.12106400 -0.05188457       0.023
   0.19024342 -0.08647428 -0.01729486       0.023
   0.05188457  0.05188457  0.19024342       0.012
   0.29401256 -0.19024342 -0.05188457       0.023
   0.25942285 -0.15565371 -0.01729486       0.023
   0.22483314 -0.12106400  0.01729486       0.023
   0.05188457  0.05188457 -0.29401256       0.012
   0.01729486  0.08647428 -0.25942285       0.023
   0.05188457  0.05188457 -0.22483314       0.012
   0.08647428  0.08647428  0.08647428       0.004
   0.05188457  0.12106400  0.12106400       0.012
   0.29401256 -0.12106400 -0.12106400       0.012
   0.25942285 -0.08647428 -0.08647428       0.012
   0.08647428  0.08647428  0.15565371       0.012
   0.32860228 -0.15565371 -0.08647428       0.023
   0.29401256 -0.12106400 -0.05188457       0.023
   0.08647428  0.08647428 -0.32860228       0.012
   0.12106400  0.12106400  0.12106400       0.004
   0.36319199 -0.12106400 -0.12106400       0.012
 
 k-points in reciprocal lattice and weights: Automatic mesh                          
   0.06250000  0.06250000  0.06250000       0.004
   0.18750000  0.06250000  0.06250000       0.012
   0.31250000  0.06250000  0.06250000       0.012
   0.43750000  0.06250000  0.06250000       0.012
  -0.43750000  0.06250000  0.06250000       0.012
  -0.31250000  0.06250000  0.06250000       0.012
  -0.18750000  0.06250000  0.06250000       0.012
  -0.06250000  0.06250000  0.06250000       0.012
   0.18750000  0.18750000  0.06250000       0.012
   0.31250000  0.18750000  0.06250000       0.023
   0.43750000  0.18750000  0.06250000       0.023
  -0.43750000  0.18750000  0.06250000       0.023
  -0.31250000  0.18750000  0.06250000       0.023
  -0.18750000  0.18750000  0.06250000       0.023
  -0.06250000  0.18750000  0.06250000       0.023
   0.31250000  0.31250000  0.06250000       0.012
   0.43750000  0.31250000  0.06250000       0.023
  -0.43750000  0.31250000  0.06250000       0.023
  -0.31250000  0.31250000  0.06250000       0.023
  -0.18750000  0.31250000  0.06250000       0.023
  -0.06250000  0.31250000  0.06250000       0.023
   0.43750000  0.43750000  0.06250000       0.012
  -0.43750000  0.43750000  0.06250000       0.023
  -0.31250000  0.43750000  0.06250000       0.023
  -0.18750000  0.43750000  0.06250000       0.023
  -0.06250000  0.43750000  0.06250000       0.023
  -0.43750000 -0.43750000  0.06250000       0.012
  -0.31250000 -0.43750000  0.06250000       0.023
  -0.18750000 -0.43750000  0.06250000       0.023
  -0.31250000 -0.31250000  0.06250000       0.012
  -0.18750000 -0.31250000  0.06250000       0.023
  -0.18750000 -0.18750000  0.06250000       0.012
   0.18750000  0.18750000  0.18750000       0.004
   0.31250000  0.18750000  0.18750000       0.012
   0.43750000  0.18750000  0.18750000       0.012
  -0.43750000  0.18750000  0.18750000       0.012
  -0.31250000  0.18750000  0.18750000       0.012
  -0.18750000  0.18750000  0.18750000       0.012
   0.31250000  0.31250000  0.18750000       0.012
   0.43750000  0.31250000  0.18750000       0.023
  -0.43750000  0.31250000  0.18750000       0.023
  -0.31250000  0.31250000  0.18750000       0.023
  -0.18750000  0.31250000  0.18750000       0.023
   0.43750000  0.43750000  0.18750000       0.012
  -0.43750000  0.43750000  0.18750000       0.023
  -0.31250000  0.43750000  0.18750000       0.023
  -0.18750000  0.43750000  0.18750000       0.023
  -0.43750000 -0.43750000  0.18750000       0.012
  -0.31250000 -0.43750000  0.18750000       0.023
  -0.31250000 -0.31250000  0.18750000       0.012
   0.31250000  0.31250000  0.31250000       0.004
   0.43750000  0.31250000  0.31250000       0.012
  -0.43750000  0.31250000  0.31250000       0.012
  -0.31250000  0.31250000  0.31250000       0.012
   0.43750000  0.43750000  0.31250000       0.012
  -0.43750000  0.43750000  0.31250000       0.023
  -0.31250000  0.43750000  0.31250000       0.023
  -0.43750000 -0.43750000  0.31250000       0.012
   0.43750000  0.43750000  0.43750000       0.004
  -0.43750000  0.43750000  0.43750000       0.012
 
 position of ions in fractional coordinates (direct lattice) 
   0.00000000  0.00000000  0.00000000
 
 position of ions in cartesian coordinates  (Angst):
   0.00000000  0.00000000  0.00000000
 


--------------------------------------------------------------------------------------------------------


 k-point   1 :   0.0625 0.0625 0.0625  plane waves:     199
 k-point   2 :   0.1875 0.0625 0.0625  plane waves:     210
 k-point   3 :   0.3125 0.0625 0.0625  plane waves:     213
 k-point   4 :   0.4375 0.0625 0.0625  plane waves:     217
 k-point   5 :  -0.4375 0.0625 0.0625  plane waves:     219
 k-point   6 :  -0.3125 0.0625 0.0625  plane waves:     213
 k-point   7 :  -0.1875 0.0625 0.0625  plane waves:     207
 k-point   8 :  -0.0625 0.0625 0.0625  plane waves:     209
 k-point   9 :   0.1875 0.1875 0.0625  plane waves:     209
 k-point  10 :   0.3125 0.1875 0.0625  plane waves:     214
 k-point  11 :   0.4375 0.1875 0.0625  plane waves:     216
 k-point  12 :  -0.4375 0.1875 0.0625  plane waves:     216
 k-point  13 :  -0.3125 0.1875 0.0625  plane waves:     216
 k-point  14 :  -0.1875 0.1875 0.0625  plane waves:     210
 k-point  15 :  -0.0625 0.1875 0.0625  plane waves:     209
 k-point  16 :   0.3125 0.3125 0.0625  plane waves:     215
 k-point  17 :   0.4375 0.3125 0.0625  plane waves:     214
 k-point  18 :  -0.4375 0.3125 0.0625  plane waves:     217
 k-point  19 :  -0.3125 0.3125 0.0625  plane waves:     218
 k-point  20 :  -0.1875 0.3125 0.0625  plane waves:     214
 k-point  21 :  -0.0625 0.3125 0.0625  plane waves:     214
 k-point  22 :   0.4375 0.4375 0.0625  plane waves:     213
 k-point  23 :  -0.4375 0.4375 0.0625  plane waves:     215
 k-point  24 :  -0.3125 0.4375 0.0625  plane waves:     219
 k-point  25 :  -0.1875 0.4375 0.0625  plane waves:     217
 k-point  26 :  -0.0625 0.4375 0.0625  plane waves:     217
 k-point  27 :  -0.4375-0.4375 0.0625  plane waves:     219
 k-point  28 :  -0.3125-0.4375 0.0625  plane waves:     214
 k-point  29 :  -0.1875-0.4375 0.0625  plane waves:     215
 k-point  30 :  -0.3125-0.3125 0.0625  plane waves:     215
 k-point  31 :  -0.1875-0.3125 0.0625  plane waves:     214
 k-point  32 :  -0.1875-0.1875 0.0625  plane waves:     213
 k-point  33 :   0.1875 0.1875 0.1875  plane waves:     205
 k-point  34 :   0.3125 0.1875 0.1875  plane waves:     212
 k-point  35 :   0.4375 0.1875 0.1875  plane waves:     212
 k-point  36 :  -0.4375 0.1875 0.1875  plane waves:     214
 k-point  37 :  -0.3125 0.1875 0.1875  plane waves:     217
 k-point  38 :  -0.1875 0.1875 0.1875  plane waves:     216
 k-point  39 :   0.3125 0.3125 0.1875  plane waves:     212
 k-point  40 :   0.4375 0.3125 0.1875  plane waves:     214
 k-point  41 :  -0.4375 0.3125 0.1875  plane waves:     213
 k-point  42 :  -0.3125 0.3125 0.1875  plane waves:     215
 k-point  43 :  -0.1875 0.3125 0.1875  plane waves:     215
 k-point  44 :   0.4375 0.4375 0.1875  plane waves:     216
 k-point  45 :  -0.4375 0.4375 0.1875  plane waves:     213
 k-point  46 :  -0.3125 0.4375 0.1875  plane waves:     214
 k-point  47 :  -0.1875 0.4375 0.1875  plane waves:     212
 k-point  48 :  -0.4375-0.4375 0.1875  plane waves:     215
 k-point  49 :  -0.3125-0.4375 0.1875  plane waves:     211
 k-point  50 :  -0.3125-0.3125 0.1875  plane waves:     213
 k-point  51 :   0.3125 0.3125 0.3125  plane waves:     211
 k-point  52 :   0.4375 0.3125 0.3125  plane waves:     215
 k-point  53 :  -0.4375 0.3125 0.3125  plane waves:     217
 k-point  54 :  -0.3125 0.3125 0.3125  plane waves:     220
 k-point  55 :   0.4375 0.4375 0.3125  plane waves:     216
 k-point  56 :  -0.4375 0.4375 0.3125  plane waves:     217
 k-point  57 :  -0.3125 0.4375 0.3125  plane waves:     211
 k-point  58 :  -0.4375-0.4375 0.3125  plane waves:     215
 k-point  59 :   0.4375 0.4375 0.4375  plane waves:     219
 k-point  60 :  -0.4375 0.4375 0.4375  plane waves:     215

 maximum and minimum number of plane-waves per node :        39       22

 maximum number of plane-waves:       220
 maximum index in each direction: 
   IXMAX=    4   IYMAX=    4   IZMAX=    4
   IXMIN=   -4   IYMIN=   -4   IZMIN=   -4


 parallel 3D FFT for wavefunctions:
    minimum data exchange during FFTs selected (reduces bandwidth)
 parallel 3D FFT for charge:
    minimum data exchange during FFTs selected (reduces bandwidth)


 total amount of memory used by VASP MPI-rank0    31050. kBytes
=======================================================================

   base      :      30000. kBytes
   nonl-proj :        311. kBytes
   fftplans  :        112. kBytes
   grid      :        274. kBytes
   one-center:         31. kBytes
   wavefun   :        322. kBytes
 
     INWAV:  cpu time      0.0000: real time      0.0003
 Broyden mixing: mesh for mixing (old mesh)
   NGX =  9   NGY =  9   NGZ =  9
  (NGX  = 36   NGY  = 36   NGZ  = 36)
  gives a total of    729 points

 initial charge density was supplied:
 charge density of overlapping atoms calculated
 number of electron       9.0000000 magnetization       3.0000000
 keeping initial charge density in first step


--------------------------------------------------------------------------------------------------------


 Maximum index for augmentation-charges         1396 (set IRDMAX)


--------------------------------------------------------------------------------------------------------


 First call to EWALD:  gamma=   0.779
 Maximum number of real-space cells 3x 3x 3
 Maximum number of reciprocal cells 3x 3x 3

    FEWALD:  cpu time      0.0011: real time      0.0012


--------------------------------------- Iteration      1(   1)  ---------------------------------------


    POTLOK:  cpu time      0.0053: real time      0.0054
    SETDIJ:  cpu time      0.0049: real time      0.0049
     EDDAV:  cpu time      0.2743: real time      0.2760
       DOS:  cpu time      0.0013: real time      0.0013
    --------------------------------------------
      LOOP:  cpu time      0.2858: real time      0.2876

 eigenvalue-minimisations  :  2964
 total energy-change (2. order) : 0.2345535E+02  (-0.3553374E+03)
 number of electron       9.0000000 magnetization       3.0000000
 augmentation part        9.0000000 magnetization       3.0000000

 Free energy of the ion-electron system (eV)
  ---------------------------------------------------
  alpha Z        PSCENC =        35.90071616
  Ewald energy   TEWEN  =      -739.90220173
  -Hartree energ DENC   =      -158.95744899
  -exchange      EXHF   =         0.00000000
  -V(xc)+E(xc)   XCENC  =        17.55278433
  PAW double counting   =       719.99081943     -772.94345096
  entropy T*S    EENTRO =        -0.00202394
  eigenvalues    EBANDS =       108.45842013
  atomic energy  EATOM  =       813.35773410
  Solvation  Ediel_sol  =         0.00000000
  ---------------------------------------------------
  free energy    TOTEN  =        23.45534853 eV

  energy without entropy =       23.45737247  energy(sigma->0) =       23.45636050


--------------------------------------------------------------------------------------------------------




--------------------------------------- Iteration      1(   2)  ---------------------------------------


     EDDAV:  cpu time      0.2669: real time      0.2689
       DOS:  cpu time      0.0008: real time      0.0008
    --------------------------------------------
      LOOP:  cpu time      0.2677: real time      0.2697

 eigenvalue-minimisations  :  3084
 total energy-change (2. order) :-0.3045902E+02  (-0.2836172E+02)
 number of electron       9.0000000 magnetization       3.0000000
 augmentation part        9.0000000 magnetization       3.0000000

 Free energy of the ion-electron system (eV)
  ---------------------------------------------------
  alpha Z        PSCENC =        35.90071616
  Ewald energy   TEWEN  =      -739.90220173
  -Hartree energ DENC   =      -158.95744899
  -exchange      EXHF   =         0.00000000
  -V(xc)+E(xc)   XCENC  =        17.55278433
  PAW double counting   =       719.99081943     -772.94345096
  entropy T*S    EENTRO =        -0.00152780
  eigenvalues    EBANDS =        77.99890700
  atomic energy  EATOM  =       813.35773410
  Solvation  Ediel_sol  =         0.00000000
  ---------------------------------------------------
  free energy    TOTEN  =        -7.00366845 eV

  energy without entropy =       -7.00214065  energy(sigma->0) =       -7.00290455


--------------------------------------------------------------------------------------------------------




--------------------------------------- Iteration      1(   3)  ---------------------------------------


     EDDAV:  cpu time      0.2818: real time      0.2836
       DOS:  cpu time      0.0008: real time      0.0008
    --------------------------------------------
      LOOP:  cpu time      0.2826: real time      0.2844

 eigenvalue-minimisations  :  3384
 total energy-change (2. order) :-0.8193899E+00  (-0.8127440E+00)
 number of electron       9.0000000 magnetization       3.0000000
 augmentation part        9.0000000 magnetization       3.0000000

 Free energy of the ion-electron system (eV)
  ---------------------------------------------------
  alpha Z        PSCENC =        35.90071616
  Ewald energy   TEWEN  =      -739.90220173
  -Hartree energ DENC   =      -158.95744899
  -exchange      EXHF   =         0.00000000
  -V(xc)+E(xc)   XCENC  =        17.55278433
  PAW double counting   =       719.99081943     -772.94345096
  entropy T*S    EENTRO =        -0.00126019
  eigenvalues    EBANDS =        77.17924954
  atomic energy  EATOM  =       813.35773410
  Solvation  Ediel_sol  =         0.00000000
  ---------------------------------------------------
  free energy    TOTEN  =        -7.82305831 eV

  energy without entropy =       -7.82179812  energy(sigma->0) =       -7.82242821


--------------------------------------------------------------------------------------------------------




--------------------------------------- Iteration      1(   4)  ---------------------------------------


     EDDAV:  cpu time      0.2820: real time      0.2836
       DOS:  cpu time      0.0008: real time      0.0008
    --------------------------------------------
      LOOP:  cpu time      0.2828: real time      0.2844

 eigenvalue-minimisations  :  3408
 total energy-change (2. order) :-0.8594691E-02  (-0.8593108E-02)
 number of electron       9.0000000 magnetization       3.0000000
 augmentation part        9.0000000 magnetization       3.0000000

 Free energy of the ion-electron system (eV)
  ---------------------------------------------------
  alpha Z        PSCENC =        35.90071616
  Ewald energy   TEWEN  =      -739.90220173
  -Hartree energ DENC   =      -158.95744899
  -exchange      EXHF   =         0.00000000
  -V(xc)+E(xc)   XCENC  =        17.55278433
  PAW double counting   =       719.99081943     -772.94345096
  entropy T*S    EENTRO =        -0.00125893
  eigenvalues    EBANDS =        77.17065359
  atomic energy  EATOM  =       813.35773410
  Solvation  Ediel_sol  =         0.00000000
  ---------------------------------------------------
  free energy    TOTEN  =        -7.83165300 eV

  energy without entropy =       -7.83039407  energy(sigma->0) =       -7.83102353


--------------------------------------------------------------------------------------------------------




--------------------------------------- Iteration      1(   5)  ---------------------------------------


     EDDAV:  cpu time      0.3163: real time      0.3180
       DOS:  cpu time      0.0009: real time      0.0009
    CHARGE:  cpu time      0.0130: real time      0.0130
    MIXING:  cpu time      0.0002: real time      0.0002
    --------------------------------------------
      LOOP:  cpu time      0.3303: real time      0.3321

 eigenvalue-minimisations  :  3760
 total energy-change (2. order) :-0.2307699E-03  (-0.2307657E-03)
 number of electron       9.0000000 magnetization       1.5334732
 augmentation part        4.5711624 magnetization       1.1114419

 Broyden mixing:
  rms(total) = 0.10429E+01    rms(broyden)= 0.10429E+01
  rms(prec ) = 0.32074E+01
  weight for this iteration     100.00

 Free energy of the ion-electron system (eV)
  ---------------------------------------------------
  alpha Z        PSCENC =        35.90071616
  Ewald energy   TEWEN  =      -739.90220173
  -Hartree energ DENC   =      -158.95744899
  -exchange      EXHF   =         0.00000000
  -V(xc)+E(xc)   XCENC  =        17.55278433
  PAW double counting   =       719.99081943     -772.94345096
  entropy T*S    EENTRO =        -0.00125893
  eigenvalues    EBANDS =        77.17042281
  atomic energy  EATOM  =       813.35773410
  Solvation  Ediel_sol  =         0.00000000
  ---------------------------------------------------
  free energy    TOTEN  =        -7.83188377 eV

  energy without entropy =       -7.83062484  energy(sigma->0) =       -7.83125431


--------------------------------------------------------------------------------------------------------




--------------------------------------- Iteration      1(   6)  ---------------------------------------


    POTLOK:  cpu time      0.0036: real time      0.0038
    SETDIJ:  cpu time      0.0045: real time      0.0045
     EDDAV:  cpu time      0.3033: real time      0.3054
       DOS:  cpu time      0.0008: real time      0.0008
    CHARGE:  cpu time      0.0125: real time      0.0125
    MIXING:  cpu time      0.0002: real time      0.0002
    --------------------------------------------
      LOOP:  cpu time      0.3249: real time      0.3273

 eigenvalue-minimisations  :  3696
 total energy-change (2. order) : 0.5952603E+00  (-0.1372315E+01)
 number of electron       9.0000000 magnetization       1.6085114
 augmentation part        5.4047113 magnetization       1.4707510

 Broyden mixing:
  rms(total) = 0.51792E+00    rms(broyden)= 0.51790E+00
  rms(prec ) = 0.11720E+01
  weight for this iteration     100.00

 eigenvalues of (default mixing * dielectric matrix)
  average eigenvalue GAMMA=   0.7895
  0.7895

 Free energy of the ion-electron system (eV)
  ---------------------------------------------------
  alpha Z        PSCENC =        35.90071616
  Ewald energy   TEWEN  =      -739.90220173
  -Hartree energ DENC   =      -139.41499816
  -exchange      EXHF   =         0.00000000
  -V(xc)+E(xc)   XCENC  =        16.04772678
  PAW double counting   =       771.23473236     -818.70377305
  entropy T*S    EENTRO =        -0.00227191
  eigenvalues    EBANDS =        54.24571203
  atomic energy  EATOM  =       813.35773410
  Solvation  Ediel_sol  =         0.00000000
  ---------------------------------------------------
  free energy    TOTEN  =        -7.23662342 eV

  energy without entropy =       -7.23435151  energy(sigma->0) =       -7.23548747


--------------------------------------------------------------------------------------------------------




--------------------------------------- Iteration      1(   7)  ---------------------------------------


    POTLOK:  cpu time      0.0034: real time      0.0035
    SETDIJ:  cpu time      0.0041: real time      0.0041
     EDDAV:  cpu time      0.2933: real time      0.2948
       DOS:  cpu time      0.0008: real time      0.0008
    CHARGE:  cpu time      0.0122: real time      0.0122
    MIXING:  cpu time      0.0003: real time      0.0003
    --------------------------------------------
      LOOP:  cpu time      0.3140: real time      0.3157

 eigenvalue-minimisations  :  3584
 total energy-change (2. order) : 0.2489249E+00  (-0.1957114E+00)
 number of electron       9.0000000 magnetization       1.7238607
 augmentation part        5.1012243 magnetization       1.5414425

 Broyden mixing:
  rms(total) = 0.24713E+00    rms(broyden)= 0.24713E+00
  rms(prec ) = 0.40643E+00
  weight for this iteration     100.00

 eigenvalues of (default mixing * dielectric matrix)
  average eigenvalue GAMMA=   0.7114
  0.9149  0.5080

 Free energy of the ion-electron system (eV)
  ---------------------------------------------------
  alpha Z        PSCENC =        35.90071616
  Ewald energy   TEWEN  =      -739.90220173
  -Hartree energ DENC   =      -144.32833346
  -exchange      EXHF   =         0.00000000
  -V(xc)+E(xc)   XCENC  =        16.31749025
  PAW double counting   =       800.41738177     -851.43552836
  entropy T*S    EENTRO =        -0.00234082
  eigenvalues    EBANDS =        62.68738353
  atomic energy  EATOM  =       813.35773410
  Solvation  Ediel_sol  =         0.00000000
  ---------------------------------------------------
  free energy    TOTEN  =        -6.98769856 eV

  energy without entropy =       -6.98535773  energy(sigma->0) =       -6.98652815


--------------------------------------------------------------------------------------------------------




--------------------------------------- Iteration      1(   8)  ---------------------------------------


    POTLOK:  cpu time      0.0033: real time      0.0034
    SETDIJ:  cpu time      0.0041: real time      0.0042
     EDDAV:  cpu time      0.3104: real time      0.3119
       DOS:  cpu time      0.0008: real time      0.0008
    CHARGE:  cpu time      0.0123: real time      0.0123
    MIXING:  cpu time      0.0002: real time      0.0002
    --------------------------------------------
      LOOP:  cpu time      0.3311: real time      0.3329

 eigenvalue-minimisations  :  3852
 total energy-change (2. order) : 0.7553208E-02  (-0.1440423E-02)
 number of electron       9.0000000 magnetization       1.7521074
 augmentation part        5.1170871 magnetization       1.5654157

 Broyden mixing:
  rms(total) = 0.11101E+00    rms(broyden)= 0.11101E+00
  rms(prec ) = 0.22374E+00
  weight for this iteration     100.00

 eigenvalues of (default mixing * dielectric matrix)
  average eigenvalue GAMMA=   1.0143
  1.7274  0.7546  0.5609

 Free energy of the ion-electron system (eV)
  ---------------------------------------------------
  alpha Z        PSCENC =        35.90071616
  Ewald energy   TEWEN  =      -739.90220173
  -Hartree energ DENC   =      -143.08401628
  -exchange      EXHF   =         0.00000000
  -V(xc)+E(xc)   XCENC  =        16.31621092
  PAW double counting   =       821.33489957     -872.96952924
  entropy T*S    EENTRO =        -0.00213282
  eigenvalues    EBANDS =        62.06817396
  atomic energy  EATOM  =       813.35773410
  Solvation  Ediel_sol  =         0.00000000
  ---------------------------------------------------
  free energy    TOTEN  =        -6.98014535 eV

  energy without entropy =       -6.97801253  energy(sigma->0) =       -6.97907894


--------------------------------------------------------------------------------------------------------




--------------------------------------- Iteration      1(   9)  ---------------------------------------


    POTLOK:  cpu time      0.0033: real time      0.0034
    SETDIJ:  cpu time      0.0043: real time      0.0043
     EDDAV:  cpu time      0.3234: real time      0.3252
       DOS:  cpu time      0.0008: real time      0.0008
    CHARGE:  cpu time      0.0122: real time      0.0123
    MIXING:  cpu time      0.0003: real time      0.0003
    --------------------------------------------
      LOOP:  cpu time      0.3443: real time      0.3464

 eigenvalue-minimisations  :  4084
 total energy-change (2. order) : 0.6515285E-02  (-0.8842876E-03)
 number of electron       9.0000000 magnetization       1.7198256
 augmentation part        5.1349053 magnetization       1.5367544

 Broyden mixing:
  rms(total) = 0.31594E-01    rms(broyden)= 0.31594E-01
  rms(prec ) = 0.57550E-01
  weight for this iteration     100.00

 eigenvalues of (default mixing * dielectric matrix)
  average eigenvalue GAMMA=   1.0358
  2.1306  0.6929  0.6929  0.6268

 Free energy of the ion-electron system (eV)
  ---------------------------------------------------
  alpha Z        PSCENC =        35.90071616
  Ewald energy   TEWEN  =      -739.90220173
  -Hartree energ DENC   =      -141.69074467
  -exchange      EXHF   =         0.00000000
  -V(xc)+E(xc)   XCENC  =        16.27680671
  PAW double counting   =       847.62876654     -900.01306335
  entropy T*S    EENTRO =        -0.00218118
  eigenvalues    EBANDS =        61.47053734
  atomic energy  EATOM  =       813.35773410
  Solvation  Ediel_sol  =         0.00000000
  ---------------------------------------------------
  free energy    TOTEN  =        -6.97363007 eV

  energy without entropy =       -6.97144889  energy(sigma->0) =       -6.97253948


--------------------------------------------------------------------------------------------------------




--------------------------------------- Iteration      1(  10)  ---------------------------------------


    POTLOK:  cpu time      0.0033: real time      0.0035
    SETDIJ:  cpu time      0.0041: real time      0.0041
     EDDAV:  cpu time      0.3395: real time      0.3412
       DOS:  cpu time      0.0008: real time      0.0008
    CHARGE:  cpu time      0.0122: real time      0.0123
    MIXING:  cpu time      0.0002: real time      0.0002
    --------------------------------------------
      LOOP:  cpu time      0.3602: real time      0.3622

 eigenvalue-minimisations  :  4348
 total energy-change (2. order) : 0.3765228E-03  (-0.3785463E-04)
 number of electron       9.0000000 magnetization       1.7131783
 augmentation part        5.1387085 magnetization       1.5318481

 Broyden mixing:
  rms(total) = 0.66573E-02    rms(broyden)= 0.66572E-02
  rms(prec ) = 0.13366E-01
  weight for this iteration     100.00

 eigenvalues of (default mixing * dielectric matrix)
  average eigenvalue GAMMA=   1.2159
  2.5489  1.4216  0.8034  0.6745  0.6312

 Free energy of the ion-electron system (eV)
  ---------------------------------------------------
  alpha Z        PSCENC =        35.90071616
  Ewald energy   TEWEN  =      -739.90220173
  -Hartree energ DENC   =      -141.31579793
  -exchange      EXHF   =         0.00000000
  -V(xc)+E(xc)   XCENC  =        16.24642381
  PAW double counting   =       856.69954461     -909.35008054
  entropy T*S    EENTRO =        -0.00215811
  eigenvalues    EBANDS =        61.39256609
  atomic energy  EATOM  =       813.35773410
  Solvation  Ediel_sol  =         0.00000000
  ---------------------------------------------------
  free energy    TOTEN  =        -6.97325354 eV

  energy without entropy =       -6.97109543  energy(sigma->0) =       -6.97217449


--------------------------------------------------------------------------------------------------------




--------------------------------------- Iteration      1(  11)  ---------------------------------------


    POTLOK:  cpu time      0.0033: real time      0.0034
    SETDIJ:  cpu time      0.0041: real time      0.0042
     EDDAV:  cpu time      0.3208: real time      0.3226
       DOS:  cpu time      0.0008: real time      0.0008
    CHARGE:  cpu time      0.0122: real time      0.0123
    MIXING:  cpu time      0.0003: real time      0.0003
    --------------------------------------------
      LOOP:  cpu time      0.3416: real time      0.3436

 eigenvalue-minimisations  :  4048
 total energy-change (2. order) : 0.3075974E-04  (-0.1273609E-04)
 number of electron       9.0000000 magnetization       1.7131894
 augmentation part        5.1389010 magnetization       1.5304209

 Broyden mixing:
  rms(total) = 0.47604E-02    rms(broyden)= 0.47604E-02
  rms(prec ) = 0.48764E-02
  weight for this iteration     100.00

 eigenvalues of (default mixing * dielectric matrix)
  average eigenvalue GAMMA=   1.0972
  2.4220  1.3847  0.7953  0.6916  0.6916  0.5979

 Free energy of the ion-electron system (eV)
  ---------------------------------------------------
  alpha Z        PSCENC =        35.90071616
  Ewald energy   TEWEN  =      -739.90220173
  -Hartree energ DENC   =      -141.17347985
  -exchange      EXHF   =         0.00000000
  -V(xc)+E(xc)   XCENC  =        16.23329309
  PAW double counting   =       861.84849745     -914.63152123
  entropy T*S    EENTRO =        -0.00214599
  eigenvalues    EBANDS =        61.39588521
  atomic energy  EATOM  =       813.35773410
  Solvation  Ediel_sol  =         0.00000000
  ---------------------------------------------------
  free energy    TOTEN  =        -6.97322278 eV

  energy without entropy =       -6.97107679  energy(sigma->0) =       -6.97214979


--------------------------------------------------------------------------------------------------------




--------------------------------------- Iteration      1(  12)  ---------------------------------------


    POTLOK:  cpu time      0.0033: real time      0.0034
    SETDIJ:  cpu time      0.0041: real time      0.0041
     EDDAV:  cpu time      0.2616: real time      0.2629
       DOS:  cpu time      0.0008: real time      0.0008
    --------------------------------------------
      LOOP:  cpu time      0.2698: real time      0.2713

 eigenvalue-minimisations  :  2848
 total energy-change (2. order) :-0.2455160E-06  (-0.4142859E-06)
 number of electron       9.0000000 magnetization       1.7131894
 augmentation part        5.1389010 magnetization       1.5304209

 Free energy of the ion-electron system (eV)
  ---------------------------------------------------
  alpha Z        PSCENC =        35.90071616
  Ewald energy   TEWEN  =      -739.90220173
  -Hartree energ DENC   =      -141.18607027
  -exchange      EXHF   =         0.00000000
  -V(xc)+E(xc)   XCENC  =        16.23462331
  PAW double counting   =       861.77092386     -914.53618245
  entropy T*S    EENTRO =        -0.00214932
  eigenvalues    EBANDS =        61.38938331
  atomic energy  EATOM  =       813.35773410
  Solvation  Ediel_sol  =         0.00000000
  ---------------------------------------------------
  free energy    TOTEN  =        -6.97322303 eV

  energy without entropy =       -6.97107371  energy(sigma->0) =       -6.97214837


--------------------------------------------------------------------------------------------------------




 average (electrostatic) potential at core
  the test charge radii are     1.0452
  (the norm of the test charge is              1.0000)
       1 -79.3969
 
 
 
 E-fermi :   9.2238     XC(G=0): -12.9209     alpha+bet :-16.3023

 Fermi energy:         9.2237678620

 spin component 1

 k-point     1 :       0.0625    0.0625    0.0625
  band No.  band energies     occupation 
      1       0.8332      1.00000
      2       6.5408      1.00000
      3       6.6109      1.00000
      4       6.6109      1.00000
      5       7.4712      1.00000
      6       7.4712      1.00000
      7      31.1134      0.00000
      8      33.5938      0.00000
      9      34.9415      0.00000
     10      34.9415      0.00000
     11      38.5994      0.00000
     12      38.5994      0.00000

 k-point     2 :       0.1875    0.0625    0.0625
  band No.  band energies     occupation 
      1       1.5861      1.00000
      2       6.3581      1.00000
      3       6.7474      1.00000
      4       6.7535      1.00000
      5       7.3393      1.00000
      6       7.5539      1.00000
      7      28.0388      0.00000
      8      30.6072      0.00000
      9      34.0478      0.00000
     10      35.9161      0.00000
     11      37.7296      0.00000
     12      38.7737      0.00000

 k-point     3 :       0.3125    0.0625    0.0625
  band No.  band energies     occupation 
      1       3.1858      1.00000
      2       6.2713      1.00000
      3       6.6908      1.00000
      4       6.7536      1.00000
      5       7.5421      1.00000
      6       7.9213      1.00000
      7      22.0827      0.00000
      8      29.5740      0.00000
      9      33.0232      0.00000
     10      35.2988      0.00000
     11      36.5737      0.00000
     12      37.6535      0.00000

 k-point     4 :       0.4375    0.0625    0.0625
  band No.  band energies     occupation 
      1       4.3046      1.00000
      2       6.4859      1.00000
      3       6.5695      1.00000
      4       7.2577      1.00000
      5       8.0302      1.00000
      6       8.6765      1.00000
      7      16.8929      0.00000
      8      29.2139      0.00000
      9      31.7348      0.00000
     10      33.2211      0.00000
     11      35.7583      0.00000
     12      37.3050      0.00000

 k-point     5 :      -0.4375    0.0625    0.0625
  band No.  band energies     occupation 
      1       4.4332      1.00000
      2       6.4012      1.00000
      3       6.5230      1.00000
      4       7.7422      1.00000
      5       8.2748      1.00000
      6       9.5499      0.00000
      7      14.7583      0.00000
      8      29.4770      0.00000
      9      31.4881      0.00000
     10      31.6786      0.00000
     11      36.5314      0.00000
     12      36.6237      0.00000

 k-point     6 :      -0.3125    0.0625    0.0625
  band No.  band energies     occupation 
      1       4.0886      1.00000
      2       6.5198      1.00000
      3       6.6497      1.00000
      4       6.7677      1.00000
      5       8.0926      1.00000
      6       8.1743      1.00000
      7      18.4702      0.00000
      8      30.1912      0.00000
      9      30.9806      0.00000
     10      33.2112      0.00000
     11      36.5064      0.00000
     12      38.2110      0.00000

 k-point     7 :      -0.1875    0.0625    0.0625
  band No.  band energies     occupation 
      1       2.6074      1.00000
      2       6.2248      1.00000
      3       6.7476      1.00000
      4       6.8010      1.00000
      5       7.4790      1.00000
      6       7.6993      1.00000
      7      24.0309      0.00000
      8      31.1527      0.00000
      9      31.5222      0.00000
     10      35.8404      0.00000
     11      36.3721      0.00000
     12      40.4078      0.00000

 k-point     8 :      -0.0625    0.0625    0.0625
  band No.  band energies     occupation 
      1       1.2155      1.00000
      2       6.4174      1.00000
      3       6.7070      1.00000
      4       6.7106      1.00000
      5       7.3554      1.00000
      6       7.5298      1.00000
      7      29.9002      0.00000
      8      32.2149      0.00000
      9      32.9074      0.00000
     10      34.8976      0.00000
     11      38.5663      0.00000
     12      40.4435      0.00000

 k-point     9 :       0.1875    0.1875    0.0625
  band No.  band energies     occupation 
      1       1.9473      1.00000
      2       6.1783      1.00000
      3       6.8750      1.00000
      4       6.9048      1.00000
      5       7.2033      1.00000
      6       7.6392      1.00000
      7      28.3235      0.00000
      8      30.6839      0.00000
      9      30.8925      0.00000
     10      33.0937      0.00000
     11      37.6565      0.00000
     12      40.9341      0.00000

 k-point    10 :       0.3125    0.1875    0.0625
  band No.  band energies     occupation 
      1       3.2365      1.00000
      2       5.9172      1.00000
      3       6.6756      1.00000
      4       7.1250      1.00000
      5       7.4529      1.00000
      6       7.9885      1.00000
      7      24.5630      0.00000
      8      27.0934      0.00000
      9      30.8073      0.00000
     10      32.6570      0.00000
     11      36.7209      0.00000
     12      40.7783      0.00000

 k-point    11 :       0.4375    0.1875    0.0625
  band No.  band energies     occupation 
      1       4.5648      1.00000
      2       6.0256      1.00000
      3       6.4172      1.00000
      4       6.9792      1.00000
      5       8.0704      1.00000
      6       9.1120      0.99922
      7      18.9778      0.00000
      8      26.5563      0.00000
      9      28.3558      0.00000
     10      32.2396      0.00000
     11      38.7115      0.00000
     12      40.9406      0.00000

 k-point    12 :      -0.4375    0.1875    0.0625
  band No.  band energies     occupation 
      1       4.8641      1.00000
      2       6.0406      1.00000
      3       6.8121      1.00000
      4       6.8711      1.00000
      5       8.2453      1.00000
      6      11.2458      0.00000
      7      14.9716      0.00000
      8      26.0238      0.00000
      9      27.5883      0.00000
     10      32.1271      0.00000
     11      37.8402      0.00000
     12      41.4431      0.00000

 k-point    13 :      -0.3125    0.1875    0.0625
  band No.  band energies     occupation 
      1       4.7917      1.00000
      2       6.1715      1.00000
      3       6.5037      1.00000
      4       6.8805      1.00000
      5       7.9696      1.00000
      6       9.9138      0.00000
      7      17.3667      0.00000
      8      25.1656      0.00000
      9      29.1822      0.00000
     10      33.1695      0.00000
     11      37.2490      0.00000
     12      40.8374      0.00000

 k-point    14 :      -0.1875    0.1875    0.0625
  band No.  band energies     occupation 
      1       3.7903      1.00000
      2       5.9843      1.00000
      3       6.5263      1.00000
      4       7.0565      1.00000
      5       7.3968      1.00000
      6       8.4427      1.00000
      7      22.6330      0.00000
      8      25.2867      0.00000
      9      31.6940      0.00000
     10      35.0529      0.00000
     11      36.7797      0.00000
     12      39.4762      0.00000

 k-point    15 :      -0.0625    0.1875    0.0625
  band No.  band energies     occupation 
      1       2.2927      1.00000
      2       6.1778      1.00000
      3       6.7815      1.00000
      4       6.9054      1.00000
      5       7.2722      1.00000
      6       7.7247      1.00000
      7      26.2175      0.00000
      8      28.7880      0.00000
      9      33.1393      0.00000
     10      34.8545      0.00000
     11      37.8181      0.00000
     12      39.3328      0.00000

 k-point    16 :       0.3125    0.3125    0.0625
  band No.  band energies     occupation 
      1       3.8959      1.00000
      2       5.5514      1.00000
      3       6.9643      1.00000
      4       7.5004      1.00000
      5       7.8048      1.00000
      6       7.9529      1.00000
      7      25.1475      0.00000
      8      26.7125      0.00000
      9      26.9170      0.00000
     10      29.5907      0.00000
     11      33.4146      0.00000
     12      45.8434      0.00000

 k-point    17 :       0.4375    0.3125    0.0625
  band No.  band energies     occupation 
      1       4.6130      1.00000
      2       5.3705      1.00000
      3       6.9283      1.00000
      4       7.7024      1.00000
      5       8.1120      1.00000
      6       9.3680      0.00002
      7      21.8801      0.00000
      8      23.7805      0.00000
      9      24.5763      0.00000
     10      30.7508      0.00000
     11      34.6697      0.00000
     12      44.3354      0.00000

 k-point    18 :      -0.4375    0.3125    0.0625
  band No.  band energies     occupation 
      1       5.0666      1.00000
      2       5.4864      1.00000
      3       6.6720      1.00000
      4       7.4504      1.00000
      5       8.3059      1.00000
      6      12.3745      0.00000
      7      16.9723      0.00000
      8      21.5995      0.00000
      9      24.8117      0.00000
     10      31.1430      0.00000
     11      39.5287      0.00000
     12      42.5329      0.00000

 k-point    19 :      -0.3125    0.3125    0.0625
  band No.  band energies     occupation 
      1       5.4898      1.00000
      2       5.6325      1.00000
      3       6.2755      1.00000
      4       7.2724      1.00000
      5       8.0371      1.00000
      6      12.6505      0.00000
      7      16.8271      0.00000
      8      20.3193      0.00000
      9      26.4513      0.00000
     10      32.0077      0.00000
     11      40.4706      0.00000
     12      45.1169      0.00000

 k-point    20 :      -0.1875    0.3125    0.0625
  band No.  band energies     occupation 
      1       5.0481      1.00000
      2       6.0003      1.00000
      3       6.1185      1.00000
      4       7.1208      1.00000
      5       7.7093      1.00000
      6       9.9740      0.00000
      7      19.5048      0.00000
      8      22.3910      0.00000
      9      28.9439      0.00000
     10      33.6822      0.00000
     11      37.8384      0.00000
     12      42.1387      0.00000

 k-point    21 :      -0.0625    0.3125    0.0625
  band No.  band energies     occupation 
      1       3.9060      1.00000
      2       6.2362      1.00000
      3       6.5374      1.00000
      4       6.8100      1.00000
      5       7.7517      1.00000
      6       8.3293      1.00000
      7      20.3992      0.00000
      8      27.9919      0.00000
      9      31.4422      0.00000
     10      33.6843      0.00000
     11      37.4047      0.00000
     12      38.8213      0.00000

 k-point    22 :       0.4375    0.4375    0.0625
  band No.  band energies     occupation 
      1       4.4338      1.00000
      2       5.0483      1.00000
      3       8.0246      1.00000
      4       8.0342      1.00000
      5       8.3267      1.00000
      6      10.0773      0.00000
      7      20.5527      0.00000
      8      22.9183      0.00000
      9      24.0708      0.00000
     10      28.7095      0.00000
     11      32.1422      0.00000
     12      46.1327      0.00000

 k-point    23 :      -0.4375    0.4375    0.0625
  band No.  band energies     occupation 
      1       4.5726      1.00000
      2       5.0695      1.00000
      3       7.6744      1.00000
      4       7.9767      1.00000
      5       8.4542      1.00000
      6      12.4934      0.00000
      7      18.4584      0.00000
      8      20.5776      0.00000
      9      22.9474      0.00000
     10      30.1171      0.00000
     11      34.0296      0.00000
     12      46.0758      0.00000

 k-point    24 :      -0.3125    0.4375    0.0625
  band No.  band energies     occupation 
      1       5.0259      1.00000
      2       5.4043      1.00000
      3       6.8293      1.00000
      4       7.5990      1.00000
      5       8.3021      1.00000
      6      14.3369      0.00000
      7      16.3962      0.00000
      8      19.1414      0.00000
      9      24.3727      0.00000
     10      30.9782      0.00000
     11      39.4675      0.00000
     12      43.6962      0.00000

 k-point    25 :      -0.1875    0.4375    0.0625
  band No.  band energies     occupation 
      1       5.2012      1.00000
      2       5.7812      1.00000
      3       6.5449      1.00000
      4       7.0664      1.00000
      5       8.1634      1.00000
      6      12.3970      0.00000
      7      15.2445      0.00000
      8      23.0167      0.00000
      9      26.7983      0.00000
     10      32.0372      0.00000
     11      39.1774      0.00000
     12      43.5350      0.00000

 k-point    26 :      -0.0625    0.4375    0.0625
  band No.  band energies     occupation 
      1       4.5601      1.00000
      2       6.3067      1.00000
      3       6.6455      1.00000
      4       7.1543      1.00000
      5       8.1955      1.00000
      6       9.7631      0.00000
      7      15.6920      0.00000
      8      27.9944      0.00000
      9      29.7816      0.00000
     10      32.3441      0.00000
     11      36.7927      0.00000
     12      38.9395      0.00000

 k-point    27 :      -0.4375   -0.4375    0.0625
  band No.  band energies     occupation 
      1       4.3843      1.00000
      2       4.9338      1.00000
      3       8.1200      1.00000
      4       8.2785      1.00000
      5       8.4647      1.00000
      6      11.6012      0.00000
      7      18.3380      0.00000
      8      22.3771      0.00000
      9      23.4869      0.00000
     10      28.5616      0.00000
     11      31.9736      0.00000
     12      46.1094      0.00000

 k-point    28 :      -0.3125   -0.4375    0.0625
  band No.  band energies     occupation 
      1       4.6355      1.00000
      2       5.1737      1.00000
      3       7.3757      1.00000
      4       7.9182      1.00000
      5       8.3200      1.00000
      6      10.9065      0.00000
      7      20.6367      0.00000
      8      21.1893      0.00000
      9      23.4631      0.00000
     10      30.3191      0.00000
     11      34.2229      0.00000
     12      45.6956      0.00000

 k-point    29 :      -0.1875   -0.4375    0.0625
  band No.  band energies     occupation 
      1       4.9641      1.00000
      2       5.7121      1.00000
      3       6.4849      1.00000
      4       7.2157      1.00000
      5       8.2495      1.00000
      6      10.5038      0.00000
      7      17.8265      0.00000
      8      24.6244      0.00000
      9      25.7596      0.00000
     10      31.5226      0.00000
     11      39.4368      0.00000
     12      41.4932      0.00000

 k-point    30 :      -0.3125   -0.3125    0.0625
  band No.  band energies     occupation 
      1       4.3852      1.00000
      2       5.2634      1.00000
      3       7.5239      1.00000
      4       7.8102      1.00000
      5       8.1341      1.00000
      6       8.6008      1.00000
      7      23.4557      0.00000
      8      24.0424      0.00000
      9      25.1769      0.00000
     10      29.0276      0.00000
     11      32.5621      0.00000
     12      46.0437      0.00000

 k-point    31 :      -0.1875   -0.3125    0.0625
  band No.  band energies     occupation 
      1       4.1561      1.00000
      2       5.6324      1.00000
      3       6.6250      1.00000
      4       7.4036      1.00000
      5       7.8145      1.00000
      6       8.4288      1.00000
      7      23.1052      0.00000
      8      25.5441      0.00000
      9      27.4873      0.00000
     10      31.4759      0.00000
     11      35.4708      0.00000
     12      42.6452      0.00000

 k-point    32 :      -0.1875   -0.1875    0.0625
  band No.  band energies     occupation 
      1       2.9312      1.00000
      2       5.8725      1.00000
      3       6.8657      1.00000
      4       7.1786      1.00000
      5       7.3593      1.00000
      6       7.7854      1.00000
      7      26.6968      0.00000
      8      28.5801      0.00000
      9      29.5401      0.00000
     10      30.8525      0.00000
     11      35.0210      0.00000
     12      43.4272      0.00000

 k-point    33 :       0.1875    0.1875    0.1875
  band No.  band energies     occupation 
      1       1.9395      1.00000
      2       6.3370      1.00000
      3       6.7523      1.00000
      4       6.7523      1.00000
      5       7.4814      1.00000
      6       7.4814      1.00000
      7      25.9437      0.00000
      8      32.1635      0.00000
      9      33.7827      0.00000
     10      33.7827      0.00000
     11      39.2221      0.00000
     12      39.6313      0.00000

 k-point    34 :       0.3125    0.1875    0.1875
  band No.  band energies     occupation 
      1       2.9429      1.00000
      2       6.1230      1.00000
      3       6.7010      1.00000
      4       6.9514      1.00000
      5       7.2394      1.00000
      6       8.0114      1.00000
      7      24.3095      0.00000
      8      26.9267      0.00000
      9      34.3960      0.00000
     10      36.2363      0.00000
     11      36.2736      0.00000
     12      37.8615      0.00000

 k-point    35 :       0.4375    0.1875    0.1875
  band No.  band energies     occupation 
      1       4.4593      1.00000
      2       6.0293      1.00000
      3       6.3786      1.00000
      4       6.9881      1.00000
      5       7.4735      1.00000
      6       9.0614      1.00000
      7      20.9458      0.00000
      8      23.6979      0.00000
      9      32.4732      0.00000
     10      32.7299      0.00000
     11      38.1668      0.00000
     12      39.5865      0.00000

 k-point    36 :      -0.4375    0.1875    0.1875
  band No.  band energies     occupation 
      1       4.9939      1.00000
      2       6.0359      1.00000
      3       6.6359      1.00000
      4       6.8907      1.00000
      5       8.0240      1.00000
      6      11.0158      0.00000
      7      16.0867      0.00000
      8      23.9473      0.00000
      9      29.7914      0.00000
     10      30.8738      0.00000
     11      39.8272      0.00000
     12      40.0893      0.00000

 k-point    37 :      -0.3125    0.1875    0.1875
  band No.  band energies     occupation 
      1       4.9058      1.00000
      2       5.9153      1.00000
      3       6.6614      1.00000
      4       6.9600      1.00000
      5       8.3049      1.00000
      6      10.8803      0.00000
      7      16.0537      0.00000
      8      25.2689      0.00000
      9      28.0085      0.00000
     10      30.3353      0.00000
     11      40.9611      0.00000
     12      40.9740      0.00000

 k-point    38 :      -0.1875    0.1875    0.1875
  band No.  band energies     occupation 
      1       4.3218      1.00000
      2       5.7632      1.00000
      3       6.5323      1.00000
      4       7.1294      1.00000
      5       8.1446      1.00000
      6       8.5454      1.00000
      7      20.9048      0.00000
      8      27.4025      0.00000
      9      27.6243      0.00000
     10      30.6255      0.00000
     11      37.8693      0.00000
     12      42.2189      0.00000

 k-point    39 :       0.3125    0.3125    0.1875
  band No.  band energies     occupation 
      1       3.4839      1.00000
      2       6.0223      1.00000
      3       6.6171      1.00000
      4       6.9274      1.00000
      5       7.8059      1.00000
      6       7.9349      1.00000
      7      22.3494      0.00000
      8      29.4347      0.00000
      9      29.8036      0.00000
     10      32.6034      0.00000
     11      38.4830      0.00000
     12      39.9322      0.00000

 k-point    40 :       0.4375    0.3125    0.1875
  band No.  band energies     occupation 
      1       4.5982      1.00000
      2       5.7902      1.00000
      3       6.3199      1.00000
      4       7.2833      1.00000
      5       7.7173      1.00000
      6       9.1219      0.99803
      7      21.1946      0.00000
      8      23.8885      0.00000
      9      28.0916      0.00000
     10      34.1568      0.00000
     11      37.0449      0.00000
     12      40.2466      0.00000

 k-point    41 :      -0.4375    0.3125    0.1875
  band No.  band energies     occupation 
      1       5.3875      1.00000
      2       5.7768      1.00000
      3       6.0475      1.00000
      4       7.3344      1.00000
      5       8.0065      1.00000
      6      11.3654      0.00000
      7      18.3237      0.00000
      8      21.3878      0.00000
      9      25.4295      0.00000
     10      34.9694      0.00000
     11      37.2291      0.00000
     12      42.1855      0.00000

 k-point    42 :      -0.3125    0.3125    0.1875
  band No.  band energies     occupation 
      1       5.3714      1.00000
      2       5.5881      1.00000
      3       6.3596      1.00000
      4       7.2907      1.00000
      5       8.2519      1.00000
      6      13.2855      0.00000
      7      15.5966      0.00000
      8      22.3471      0.00000
      9      23.6681      0.00000
     10      33.8558      0.00000
     11      38.4860      0.00000
     12      43.4156      0.00000

 k-point    43 :      -0.1875    0.3125    0.1875
  band No.  band energies     occupation 
      1       4.9980      1.00000
      2       5.5798      1.00000
      3       6.3786      1.00000
      4       7.5421      1.00000
      5       8.0357      1.00000
      6      10.2971      0.00000
      7      20.0155      0.00000
      8      22.7406      0.00000
      9      24.6359      0.00000
     10      33.4484      0.00000
     11      37.0572      0.00000
     12      41.0665      0.00000

 k-point    44 :       0.4375    0.4375    0.1875
  band No.  band energies     occupation 
      1       4.7573      1.00000
      2       5.4918      1.00000
      3       6.7470      1.00000
      4       7.3820      1.00000
      5       8.2932      1.00000
      6       9.7789      0.00000
      7      19.7167      0.00000
      8      24.1839      0.00000
      9      26.1703      0.00000
     10      29.8998      0.00000
     11      37.1189      0.00000
     12      44.3770      0.00000

 k-point    45 :      -0.4375    0.4375    0.1875
  band No.  band energies     occupation 
      1       4.9748      1.00000
      2       5.4199      1.00000
[...]
      5      10.2819      0.00000
      6      13.7901      0.00000
      7      18.6194      0.00000
      8      19.5890      0.00000
      9      24.8407      0.00000
     10      29.7337      0.00000
     11      36.7649      0.00000
     12      47.0826      0.00000

 k-point    49 :      -0.3125   -0.4375    0.1875
  band No.  band energies     occupation 
      1       6.1986      1.00000
      2       6.6708      1.00000
      3       8.3097      1.00000
      4       9.7221      0.00000
      5      10.3657      0.00000
      6      14.3738      0.00000
      7      18.9800      0.00000
      8      19.6613      0.00000
      9      22.0253      0.00000
     10      32.9284      0.00000
     11      37.2773      0.00000
     12      43.4780      0.00000

 k-point    50 :      -0.3125   -0.3125    0.1875
  band No.  band energies     occupation 
      1       5.9707      1.00000
      2       6.6186      1.00000
      3       8.4576      1.00000
      4       9.5876      0.00000
      5      10.3389      0.00000
      6      12.4040      0.00000
      7      19.2659      0.00000
      8      21.6418      0.00000
      9      25.3915      0.00000
     10      29.8497      0.00000
     11      36.9759      0.00000
     12      45.9843      0.00000

 k-point    51 :       0.3125    0.3125    0.3125
  band No.  band energies     occupation 
      1       3.8337      1.00000
      2       7.7192      1.00000
      3       8.4201      1.00000
      4       8.4201      1.00000
      5       9.8029      0.00000
      6       9.8029      0.00000
      7      20.6577      0.00000
      8      30.8150      0.00000
      9      33.3487      0.00000
     10      33.3487      0.00000
     11      37.4470      0.00000
     12      37.4470      0.00000

 k-point    52 :       0.4375    0.3125    0.3125
  band No.  band energies     occupation 
      1       4.8419      1.00000
      2       7.5921      1.00000
      3       8.1510      1.00000
      4       8.5736      1.00000
      5       9.6642      0.00000
      6      10.6686      0.00000
      7      19.3296      0.00000
      8      26.7081      0.00000
      9      32.0450      0.00000
     10      33.3034      0.00000
     11      37.7142      0.00000
     12      38.0952      0.00000

 k-point    53 :      -0.4375    0.3125    0.3125
  band No.  band energies     occupation 
      1       6.1597      1.00000
      2       7.3715      1.00000
      3       7.5753      1.00000
      4       9.0293      1.00000
      5       9.6742      0.00000
      6      12.3249      0.00000
      7      18.6268      0.00000
      8      21.6455      0.00000
      9      29.7861      0.00000
     10      30.9686      0.00000
     11      41.0007      0.00000
     12      41.7149      0.00000

 k-point    54 :      -0.3125    0.3125    0.3125
  band No.  band energies     occupation 
      1       6.6272      1.00000
      2       6.7417      1.00000
      3       7.9258      1.00000
      4       9.3809      0.00000
      5      10.0279      0.00000
      6      14.8743      0.00000
      7      16.2492      0.00000
      8      20.1729      0.00000
      9      26.9747      0.00000
     10      30.1652      0.00000
     11      42.8348      0.00000
     12      44.1009      0.00000

 k-point    55 :       0.4375    0.4375    0.3125
  band No.  band energies     occupation 
      1       5.2717      1.00000
      2       7.5858      1.00000
      3       8.1405      1.00000
      4       8.5577      1.00000
      5      10.2548      0.00000
      6      10.6776      0.00000
      7      17.7965      0.00000
      8      28.3463      0.00000
      9      29.6287      0.00000
     10      31.3471      0.00000
     11      39.0133      0.00000
     12      39.6677      0.00000

 k-point    56 :      -0.4375    0.4375    0.3125
  band No.  band energies     occupation 
      1       6.1483      1.00000
      2       7.2077      1.00000
      3       7.8173      1.00000
      4       8.9412      1.00000
      5      10.0962      0.00000
      6      12.4587      0.00000
      7      16.9965      0.00000
      8      24.4395      0.00000
      9      26.1415      0.00000
     10      33.7388      0.00000
     11      37.6542      0.00000
     12      44.2060      0.00000

 k-point    57 :      -0.3125    0.4375    0.3125
  band No.  band energies     occupation 
      1       6.6937      1.00000
      2       6.8957      1.00000
      3       7.6370      1.00000
      4       9.3686      0.00002
      5      10.1718      0.00000
      6      15.2461      0.00000
      7      16.5608      0.00000
      8      20.3088      0.00000
      9      23.6252      0.00000
     10      34.0251      0.00000
     11      39.8892      0.00000
     12      42.9539      0.00000

 k-point    58 :      -0.4375   -0.4375    0.3125
  band No.  band energies     occupation 
      1       6.3777      1.00000
      2       6.9268      1.00000
      3       7.9653      1.00000
      4       9.1004      0.99976
      5      10.1982      0.00000
      6      13.5876      0.00000
      7      16.1330      0.00000
      8      22.5997      0.00000
      9      27.4261      0.00000
     10      30.2352      0.00000
     11      42.3323      0.00000
     12      42.7653      0.00000

 k-point    59 :       0.4375    0.4375    0.4375
  band No.  band energies     occupation 
      1       5.1784      1.00000
      2       8.2616      1.00000
      3       8.2616      1.00000
      4       8.5611      1.00000
      5      10.1996      0.00000
      6      10.1996      0.00000
      7      16.4164      0.00000
      8      29.9336      0.00000
      9      32.9737      0.00000
     10      32.9737      0.00000
     11      35.7870      0.00000
     12      35.7870      0.00000

 k-point    60 :      -0.4375    0.4375    0.4375
  band No.  band energies     occupation 
      1       5.6649      1.00000
      2       7.8023      1.00000
      3       8.2861      1.00000
      4       8.4711      1.00000
      5      10.1730      0.00000
      6      11.5496      0.00000
      7      15.8208      0.00000
      8      27.1404      0.00000
      9      30.8088      0.00000
     10      30.9961      0.00000
     11      38.2801      0.00000
     12      38.7430      0.00000


--------------------------------------------------------------------------------------------------------


 soft charge-density along one line, spin component           1
         0         1         2         3         4         5         6         7         8         9
 total charge-density along one line
 
 soft charge-density along one line, spin component           2
         0         1         2         3         4         5         6         7         8         9
 total charge-density along one line
 
 pseudopotential strength for first ion, spin component:           1
 -1.385  -0.000  -0.000  -0.000  -0.000  -1.991  -0.000  -0.000
 -0.000  -1.385   0.000  -0.000  -0.000  -0.000  -1.991   0.000
 -0.000   0.000  -1.464   0.000   0.000  -0.000   0.000  -2.067
 -0.000  -0.000   0.000  -1.385   0.000  -0.000  -0.000   0.000
 -0.000  -0.000   0.000   0.000  -1.464  -0.000  -0.000   0.000
 -1.991  -0.000  -0.000  -0.000  -0.000  -2.539  -0.000  -0.000
 -0.000  -1.991   0.000  -0.000  -0.000  -0.000  -2.539   0.000
 -0.000   0.000  -2.067   0.000   0.000  -0.000   0.000  -2.612
 -0.000  -0.000   0.000  -1.991   0.000  -0.000  -0.000   0.000
 -0.000  -0.000   0.000   0.000  -2.067  -0.000  -0.000   0.000
 -0.000  -0.000   0.000  -0.000   0.000  -0.000  -0.000   0.000
 -0.000  -0.000   0.000  -0.000   0.000  -0.000  -0.000   0.000
  0.000  -0.000  -0.000   0.000  -0.000   0.000   0.000  -0.000
 -0.000   0.000  -0.000   0.000   0.000   0.000   0.000   0.000
  0.000   0.000  -0.000   0.000   0.000   0.000   0.000  -0.000
  0.000   0.000  -0.000   0.000  -0.000   0.000   0.000  -0.000
  0.000   0.000   0.000   0.000   0.000   0.000   0.000   0.000
  0.000   0.000  -0.000  -0.000   0.000   0.000   0.000  -0.000
 pseudopotential strength for first ion, spin component:           2
 -0.033   0.000  -0.000   0.000  -0.000  -0.696   0.000  -0.000
  0.000  -0.033   0.000   0.000  -0.000   0.000  -0.696   0.000
 -0.000   0.000   0.038   0.000  -0.000  -0.000   0.000  -0.628
  0.000   0.000   0.000  -0.033   0.000   0.000   0.000   0.000
 -0.000  -0.000  -0.000   0.000   0.038  -0.000  -0.000  -0.000
 -0.696   0.000  -0.000   0.000  -0.000  -1.299   0.000  -0.000
  0.000  -0.696   0.000   0.000  -0.000   0.000  -1.299   0.000
 -0.000   0.000  -0.628   0.000  -0.000  -0.000   0.000  -1.233
  0.000   0.000   0.000  -0.696   0.000   0.000   0.000   0.000
 -0.000  -0.000  -0.000   0.000  -0.628  -0.000  -0.000  -0.000
 -0.000  -0.000   0.000  -0.000  -0.000  -0.000  -0.000   0.000
 -0.000  -0.000   0.000  -0.000  -0.000  -0.000  -0.000   0.000
  0.000  -0.000  -0.000   0.000  -0.000   0.000   0.000  -0.000
 -0.000   0.000   0.000   0.000   0.000  -0.000   0.000   0.000
  0.000   0.000  -0.000   0.000   0.000   0.000  -0.000  -0.000
  0.000   0.000  -0.000   0.000  -0.000   0.000   0.000  -0.000
  0.000   0.000   0.000   0.000   0.000   0.000   0.000   0.000
  0.000   0.000  -0.000   0.000   0.000   0.000   0.000  -0.000
 total augmentation occupancy for first ion, spin component:           1
  2.748   0.000   0.000   0.000   0.000  -1.325  -0.000   0.000  -0.000  -0.000   0.000   0.000   0.000   0.000   0.000   0.000
  0.000   2.748   0.000   0.000   0.000  -0.000  -1.325   0.000   0.000   0.000  -0.000   0.000   0.000   0.000   0.000   0.000
  0.000  -0.000   3.054  -0.000   0.000   0.000   0.000  -1.505   0.000   0.000   0.000  -0.000   0.000   0.000   0.000   0.000
  0.000   0.000   0.000   2.748   0.000   0.000  -0.000  -0.000  -1.325   0.000   0.000   0.000   0.000   0.000   0.000   0.000
  0.000   0.000   0.000   0.000   3.054  -0.000   0.000   0.000   0.000  -1.505   0.000   0.000   0.000   0.000   0.000   0.000
 -1.325   0.000   0.000   0.000  -0.000   1.477   0.000   0.000   0.000   0.000   0.000   0.000   0.000   0.000   0.000   0.000
  0.000  -1.325   0.000   0.000   0.000  -0.000   1.477   0.000   0.000  -0.000  -0.000   0.000   0.000   0.000   0.000   0.000
 -0.000  -0.000  -1.505  -0.000   0.000  -0.000   0.000   1.451  -0.000  -0.000  -0.000   0.000   0.000   0.000   0.000   0.000
  0.000  -0.000   0.000  -1.325   0.000   0.000  -0.000   0.000   1.477   0.000  -0.000   0.000   0.000   0.000   0.000   0.000
  0.000   0.000   0.000   0.000  -1.505   0.000  -0.000   0.000   0.000   1.451   0.000   0.000   0.000   0.000   0.000   0.000
  0.000  -0.000   0.000   0.000   0.000   0.000  -0.000   0.000   0.000   0.000   2.081  -0.227   0.000   0.000   0.000   0.000
  0.000   0.000  -0.000  -0.000   0.000   0.000  -0.000   0.000  -0.000   0.000  -0.227   0.033   0.000   0.000   0.000   0.000
  0.000   0.000   0.000   0.000   0.000   0.000   0.000   0.000   0.000   0.000   0.000   0.000   0.274   0.000  -0.000  -0.026
  0.000   0.000   0.000   0.000   0.000   0.000   0.000   0.000   0.000   0.000   0.000   0.000  -0.000   0.274  -0.000   0.000
  0.000   0.000   0.000   0.000   0.000   0.000   0.000   0.000   0.000   0.000   0.000   0.000   0.000   0.000   0.274   0.000
  0.000   0.000   0.000   0.000   0.000   0.000   0.000   0.000   0.000   0.000   0.000   0.000  -0.026   0.000  -0.000   0.003
  0.000   0.000   0.000   0.000   0.000   0.000   0.000   0.000   0.000   0.000   0.000   0.000   0.000  -0.026   0.000  -0.000
  0.000   0.000   0.000   0.000   0.000   0.000   0.000   0.000   0.000   0.000   0.000   0.000   0.000   0.000  -0.026   0.000
 total augmentation occupancy for first ion, spin component:           2
  2.028  -0.000   0.000   0.000  -0.000  -0.976   0.000   0.000  -0.000  -0.000   0.000   0.000   0.000   0.000   0.000   0.000
 -0.000   2.028   0.000   0.000  -0.000   0.000  -0.976  -0.000   0.000   0.000   0.000   0.000   0.000   0.000   0.000   0.000
  0.000  -0.000   2.219  -0.000   0.000   0.000   0.000  -1.025  -0.000   0.000   0.000   0.000   0.000   0.000   0.000   0.000
  0.000   0.000  -0.000   2.028   0.000  -0.000   0.000   0.000  -0.976   0.000   0.000   0.000   0.000   0.000   0.000   0.000
 -0.000   0.000   0.000   0.000   2.219   0.000  -0.000   0.000  -0.000  -1.025  -0.000   0.000   0.000   0.000   0.000   0.000
 -0.976   0.000   0.000  -0.000   0.000   0.274   0.000  -0.000   0.000  -0.000   0.000  -0.000   0.000   0.000   0.000   0.000
 -0.000  -0.976   0.000  -0.000   0.000   0.000   0.274   0.000   0.000  -0.000   0.000   0.000   0.000   0.000   0.000   0.000
  0.000   0.000  -1.025  -0.000   0.000  -0.000   0.000   0.304   0.000   0.000   0.000  -0.000   0.000   0.000   0.000   0.000
  0.000   0.000   0.000  -0.976  -0.000   0.000  -0.000   0.000   0.274  -0.000   0.000   0.000   0.000   0.000   0.000   0.000
  0.000  -0.000  -0.000  -0.000  -1.025   0.000  -0.000   0.000  -0.000   0.304   0.000   0.000   0.000   0.000   0.000   0.000
 -0.000  -0.000  -0.000  -0.000   0.000   0.000  -0.000   0.000   0.000   0.000  -0.283   0.087   0.000   0.000   0.000   0.000
  0.000   0.000   0.000   0.000   0.000  -0.000   0.000  -0.000   0.000  -0.000   0.087  -0.014   0.000   0.000   0.000   0.000
  0.000   0.000   0.000   0.000   0.000   0.000   0.000   0.000   0.000   0.000   0.000   0.000  -0.034   0.000   0.000   0.005
  0.000   0.000   0.000   0.000   0.000   0.000   0.000   0.000   0.000   0.000   0.000   0.000   0.000  -0.034  -0.000   0.000
  0.000   0.000   0.000   0.000   0.000   0.000   0.000   0.000   0.000   0.000   0.000   0.000   0.000  -0.000  -0.034   0.000
  0.000   0.000   0.000   0.000   0.000   0.000   0.000   0.000   0.000   0.000   0.000   0.000   0.005   0.000   0.000  -0.001
  0.000   0.000   0.000   0.000   0.000   0.000   0.000   0.000   0.000   0.000   0.000   0.000   0.000   0.005  -0.000   0.000
  0.000   0.000   0.000   0.000   0.000   0.000   0.000   0.000   0.000   0.000   0.000   0.000   0.000  -0.000   0.005  -0.000


------------------------ aborting loop because EDIFF is reached ----------------------------------------





 total charge

# of ion       s       p       d       tot
------------------------------------------
    1        0.459   0.457   7.202   8.117



 magnetization (x)

# of ion       s       p       d       tot
------------------------------------------
    1       -0.011  -0.050   1.809   1.748
 
    CHARGE:  cpu time      0.0125: real time      0.0126
    FORLOC:  cpu time      0.0001: real time      0.0001
    FORNL :  cpu time      0.0065: real time      0.0065
    STRESS:  cpu time      0.0246: real time      0.0247
    FORCOR:  cpu time      0.0031: real time      0.0031
    FORHAR:  cpu time      0.0003: real time      0.0003
    MIXING:  cpu time      0.0002: real time      0.0002
    OFIELD:  cpu time      0.0000: real time      0.0000

  FORCE on cell =-STRESS in cart. coord.  units (eV):
  Direction    XX          YY          ZZ          XY          YZ          ZX
  --------------------------------------------------------------------------------------
  Alpha Z    35.90072    35.90072    35.90072
  Ewald    -246.63408  -246.63408  -246.63408    -0.00000    -0.00000    -0.00000
  Hartree    47.06125    47.06125    47.06125     0.00000     0.00000     0.00000
  E(xc)     -45.99887   -45.99887   -45.99887    -0.00000    -0.00000    -0.00000
  Local     -16.29889   -16.29889   -16.29889     0.00003     0.00003     0.00003
  n-local    -5.80380    -4.65147    -7.52712     1.74570    -1.59299    -0.05209
  augment   155.94212   155.94212   155.94212    -0.00003    -0.00003    -0.00003
  Kinetic    74.10752    73.49384    77.24703    -0.78088     1.03473    -0.11394
  Fock        0.00000     0.00000     0.00000     0.00000     0.00000     0.00000
  -------------------------------------------------------------------------------------
  Total      -1.07241    -1.07241    -1.07241     0.00000     0.00000    -0.00000
  in kB    -145.62699  -145.62699  -145.62699     0.00000     0.00000    -0.00000
  external pressure =     -145.63 kB  Pullay stress =        0.00 kB


 VOLUME and BASIS-vectors are now :
 -----------------------------------------------------------------------------
  energy-cutoff  :      400.00
  volume of cell :       11.80
      direct lattice vectors                 reciprocal lattice vectors
     0.000000000  1.806895583  1.806895583    -0.276717706  0.276717706  0.276717706
     1.806895583  0.000000000  1.806895583     0.276717706 -0.276717706  0.276717706
     1.806895583  1.806895583  0.000000000     0.276717706  0.276717706 -0.276717706

  length of vectors
     2.555336240  2.555336240  2.555336240     0.479289125  0.479289125  0.479289125


 FORCES acting on ions
    electron-ion (+dipol)            ewald-force                    non-local-force                 convergence-correction
 -----------------------------------------------------------------------------------------------
   -.256E-14 -.370E-14 -.617E-15   0.541E-15 0.123E-15 -.485E-14   0.331E-23 0.331E-23 0.331E-23   0.387E-14 -.140E-13 0.987E-14
 -----------------------------------------------------------------------------------------------
   -.256E-14 -.370E-14 -.617E-15   0.541E-15 0.123E-15 -.485E-14   0.331E-23 0.331E-23 0.331E-23   0.387E-14 -.140E-13 0.987E-14
 
 
 POSITION                                       TOTAL-FORCE (eV/Angst)
 -----------------------------------------------------------------------------------
      0.00000      0.00000      0.00000         0.000000      0.000000      0.000000
 -----------------------------------------------------------------------------------
    total drift:                                0.000000     -0.000000      0.000000


--------------------------------------------------------------------------------------------------------



  FREE ENERGIE OF THE ION-ELECTRON SYSTEM (eV)
  ---------------------------------------------------
  free  energy   TOTEN  =        -6.97322303 eV

  energy  without entropy=       -6.97107371  energy(sigma->0) =       -6.97214837
 


--------------------------------------------------------------------------------------------------------


    POTLOK:  cpu time      0.0077: real time      0.0077


--------------------------------------------------------------------------------------------------------




--------------------------------------------------------------------------------------------------------


  
 reached required accuracy - stopping structural energy minimisation
 writing wavefunctions
     LOOP+:  cpu time      3.8831: real time      3.9994
    4ORBIT:  cpu time      0.0000: real time      0.0000



 total charge

# of ion       s       p       d       tot
------------------------------------------
    1        0.459   0.457   7.202   8.117



 magnetization (x)

# of ion       s       p       d       tot
------------------------------------------
    1       -0.011  -0.050   1.809   1.748
 

 total amount of memory used by VASP MPI-rank0    31050. kBytes
=======================================================================

   base      :      30000. kBytes
   nonl-proj :        311. kBytes
   fftplans  :        112. kBytes
   grid      :        274. kBytes
   one-center:         31. kBytes
   wavefun   :        322. kBytes
 
  
  
 General timing and accounting informations for this job:
 ========================================================
  
                  Total CPU time used (sec):        4.819
                            User time (sec):        4.272
                          System time (sec):        0.546
                         Elapsed time (sec):        6.209
  
                   Maximum memory used (kb):      240880.
                   Average memory used (kb):          N/A
  
                          Minor page faults:        19201
                          Major page faults:           87
                 Voluntary context switches:         2252
