PROCAR lm decomposed
# of k-points:   60         # of bands:   12         # of ions:    1

 k-point     1 :    0.06250000 0.06250000 0.06250000     weight = 0.00390625

band     1 # energy    0.83319239 # occ.  1.00000000
 
ion      s     py     pz     px    dxy    dyz    dz2    dxz  x2-y2    tot
    1  0.651  0.003  0.003  0.003  0.000  0.000  0.000  0.000  0.000  0.660
 
band     2 # energy    6.54083582 # occ.  1.00000000
 
ion      s     py     pz     px    dxy    dyz    dz2    dxz  x2-y2    tot
    1  0.000  0.000  0.000  0.000  0.321  0.321  0.000  0.321  0.000  0.963
 
band     3 # energy    6.61088119 # occ.  1.00000000
 
ion      s     py     pz     px    dxy    dyz    dz2    dxz  x2-y2    tot
    1  0.000  0.000  0.000  0.000  0.540  0.019  0.001  0.405  0.000  0.966
 
band     4 # energy    6.61088119 # occ.  1.00000000
 
ion      s     py     pz     px    dxy    dyz    dz2    dxz  x2-y2    tot
    1  0.000  0.000  0.000  0.000  0.102  0.624  0.000  0.238  0.001  0.966
 
band     5 # energy    7.47123663 # occ.  1.00000000
 
ion      s     py     pz     px    dxy    dyz    dz2    dxz  x2-y2    tot
    1  0.000  0.000  0.000  0.000  0.000  0.001  0.503  0.000  0.477  0.982
 
band     6 # energy    7.47123663 # occ.  1.00000000
 
ion      s     py     pz     px    dxy    dyz    dz2    dxz  x2-y2    tot
    1  0.000  0.000  0.000  0.000  0.000  0.000  0.477  0.001  0.503  0.982
 
band     7 # energy   31.11344650 # occ.  0.00000000
 
ion      s     py     pz     px    dxy    dyz    dz2    dxz  x2-y2    tot
    1  0.001  0.010  0.010  0.010  0.051  0.051  0.000  0.051  0.000  0.185
 
band     8 # energy   33.59378261 # occ.  0.00000000
 
ion      s     py     pz     px    dxy    dyz    dz2    dxz  x2-y2    tot
    1  0.019  0.090  0.090  0.090  0.032  0.032  0.000  0.032  0.000  0.384
 
band     9 # energy   34.94151534 # occ.  0.00000000
 
ion      s     py     pz     px    dxy    dyz    dz2    dxz  x2-y2    tot
    1  0.000  0.080  0.034  0.208  0.015  0.093  0.002  0.036  0.011  0.479
 
band    10 # energy   34.94151534 # occ.  0.00000000
 
ion      s     py     pz     px    dxy    dyz    dz2    dxz  x2-y2    tot
    1  0.000  0.134  0.181  0.007  0.081  0.003  0.011  0.060  0.002  0.479
 
band    11 # energy   38.59937433 # occ.  0.00000000
 
ion      s     py     pz     px    dxy    dyz    dz2    dxz  x2-y2    tot
    1  0.000  0.003  0.002  0.008  0.127  0.643  0.001  0.238  0.004  1.027
 
band    12 # energy   38.59938277 # occ.  0.00000000
 
ion      s     py     pz     px    dxy    dyz    dz2    dxz  x2-y2    tot
    1  0.000  0.006  0.007  0.000  0.547  0.029  0.004  0.432  0.001  1.026
 

 k-point     2 :    0.18750000 0.06250000 0.06250000     weight = 0.01171875

band     1 # energy    1.58609271 # occ.  1.00000000
 
ion      s     py     pz     px    dxy    dyz    dz2    dxz  x2-y2    tot
    1  0.602  0.026  0.026  0.003  0.001  0.004  0.000  0.001  0.001  0.662
 
band     2 # energy    6.35811981 # occ.  1.00000000
 
ion      s     py     pz     px    dxy    dyz    dz2    dxz  x2-y2    tot
    1  0.000  0.001  0.001  0.005  0.456  0.033  0.000  0.456  0.000  0.953
 
band     3 # energy    6.74744953 # occ.  1.00000000
 
ion      s     py     pz     px    dxy    dyz    dz2    dxz  x2-y2    tot
    1  0.000  0.002  0.002  0.000  0.016  0.833  0.024  0.016  0.071  0.965
 
band     4 # energy    6.75349627 # occ.  1.00000000
 
ion      s     py     pz     px    dxy    dyz    dz2    dxz  x2-y2    tot
    1  0.000  0.000  0.000  0.000  0.471  0.000  0.018  0.471  0.006  0.967
 
band     5 # energy    7.33929868 # occ.  1.00000000
 
ion      s     py     pz     px    dxy    dyz    dz2    dxz  x2-y2    tot
    1  0.000  0.000  0.000  0.000  0.012  0.000  0.714  0.012  0.238  0.976
 
band     6 # energy    7.55393044 # occ.  1.00000000
 
ion      s     py     pz     px    dxy    dyz    dz2    dxz  x2-y2    tot
    1  0.001  0.000  0.000  0.000  0.002  0.091  0.221  0.002  0.663  0.981
 
band     7 # energy   28.03881945 # occ.  0.00000000
 
ion      s     py     pz     px    dxy    dyz    dz2    dxz  x2-y2    tot
    1  0.028  0.050  0.050  0.122  0.152  0.077  0.001  0.152  0.002  0.633
 
band     8 # energy   30.60723073 # occ.  0.00000000
 
ion      s     py     pz     px    dxy    dyz    dz2    dxz  x2-y2    tot
    1  0.037  0.083  0.083  0.044  0.060  0.125  0.005  0.060  0.016  0.513
 
band     9 # energy   34.04779497 # occ.  0.00000000
 
ion      s     py     pz     px    dxy    dyz    dz2    dxz  x2-y2    tot
    1  0.002  0.005  0.005  0.214  0.005  0.055  0.001  0.005  0.002  0.293
 
band    10 # energy   35.91611109 # occ.  0.00000000
 
ion      s     py     pz     px    dxy    dyz    dz2    dxz  x2-y2    tot
    1  0.000  0.124  0.124  0.000  0.096  0.000  0.093  0.096  0.031  0.563
 
band    11 # energy   37.72955666 # occ.  0.00000000
 
ion      s     py     pz     px    dxy    dyz    dz2    dxz  x2-y2    tot
    1  0.000  0.056  0.056  0.012  0.000  0.223  0.013  0.000  0.038  0.399
 
band    12 # energy   38.77365713 # occ.  0.00000000
 
ion      s     py     pz     px    dxy    dyz    dz2    dxz  x2-y2    tot
    1  0.000  0.001  0.001  0.000  0.397  0.000  0.088  0.397  0.029  0.912
 

 k-point     3 :    0.31250000 0.06250000 0.06250000     weight = 0.01171875

band     1 # energy    3.18584436 # occ.  1.00000000
 
ion      s     py     pz     px    dxy    dyz    dz2    dxz  x2-y2    tot
    1  0.461  0.052  0.052  0.015  0.029  0.052  0.001  0.029  0.003  0.692
 
band     2 # energy    6.27134832 # occ.  1.00000000
 
ion      s     py     pz     px    dxy    dyz    dz2    dxz  x2-y2    tot
    1  0.020  0.018  0.018  0.027  0.384  0.056  0.001  0.384  0.002  0.909
 
band     3 # energy    6.69079176 # occ.  1.00000000
 
ion      s     py     pz     px    dxy    dyz    dz2    dxz  x2-y2    tot
    1  0.000  0.003  0.003  0.000  0.031  0.463  0.107  0.031  0.322  0.960
 
band     4 # energy    6.75358443 # occ.  1.00000000
 
ion      s     py     pz     px    dxy    dyz    dz2    dxz  x2-y2    tot
    1  0.000  0.000  0.000  0.000  0.258  0.000  0.337  0.258  0.112  0.965
 
band     5 # energy    7.54206782 # occ.  1.00000000
 
ion      s     py     pz     px    dxy    dyz    dz2    dxz  x2-y2    tot
    1  0.000  0.001  0.001  0.000  0.227  0.000  0.390  0.227  0.130  0.976
 
band     6 # energy    7.92133483 # occ.  1.00000000
 
ion      s     py     pz     px    dxy    dyz    dz2    dxz  x2-y2    tot
    1  0.009  0.004  0.004  0.000  0.017  0.386  0.135  0.017  0.405  0.977
 
band     7 # energy   22.08272823 # occ.  0.00000000
 
ion      s     py     pz     px    dxy    dyz    dz2    dxz  x2-y2    tot
    1  0.121  0.078  0.078  0.131  0.119  0.093  0.001  0.119  0.002  0.740
 
band     8 # energy   29.57395511 # occ.  0.00000000
 
ion      s     py     pz     px    dxy    dyz    dz2    dxz  x2-y2    tot
    1  0.028  0.038  0.038  0.133  0.092  0.065  0.014  0.092  0.043  0.542
 
band     9 # energy   33.02315902 # occ.  0.00000000
 
ion      s     py     pz     px    dxy    dyz    dz2    dxz  x2-y2    tot
    1  0.000  0.059  0.059  0.115  0.001  0.096  0.000  0.001  0.000  0.330
 
band    10 # energy   35.29882010 # occ.  0.00000000
 
ion      s     py     pz     px    dxy    dyz    dz2    dxz  x2-y2    tot
    1  0.000  0.186  0.186  0.000  0.195  0.000  0.034  0.195  0.011  0.807
 
band    11 # energy   36.57367975 # occ.  0.00000000
 
ion      s     py     pz     px    dxy    dyz    dz2    dxz  x2-y2    tot
    1  0.000  0.069  0.069  0.000  0.006  0.000  0.461  0.006  0.154  0.764
 
band    12 # energy   37.65347864 # occ.  0.00000000
 
ion      s     py     pz     px    dxy    dyz    dz2    dxz  x2-y2    tot
    1  0.057  0.054  0.054  0.012  0.011  0.026  0.061  0.011  0.183  0.468
 

 k-point     4 :    0.43750000 0.06250000 0.06250000     weight = 0.01171875

band     1 # energy    4.30463541 # occ.  1.00000000
 
ion      s     py     pz     px    dxy    dyz    dz2    dxz  x2-y2    tot
    1  0.210  0.019  0.019  0.002  0.185  0.206  0.000  0.185  0.001  0.828
 
band     2 # energy    6.48590834 # occ.  1.00000000
 
ion      s     py     pz     px    dxy    dyz    dz2    dxz  x2-y2    tot
    1  0.000  0.002  0.002  0.000  0.045  0.278  0.146  0.045  0.437  0.955
 
band     3 # energy    6.56949574 # occ.  1.00000000
 
ion      s     py     pz     px    dxy    dyz    dz2    dxz  x2-y2    tot
    1  0.000  0.000  0.000  0.000  0.179  0.000  0.451  0.179  0.150  0.960
 
band     4 # energy    7.25770747 # occ.  1.00000000
 
ion      s     py     pz     px    dxy    dyz    dz2    dxz  x2-y2    tot
    1  0.053  0.079  0.079  0.079  0.196  0.033  0.025  0.196  0.074  0.812
 
band     5 # energy    8.03022873 # occ.  1.00000000
 
ion      s     py     pz     px    dxy    dyz    dz2    dxz  x2-y2    tot
    1  0.000  0.000  0.000  0.000  0.309  0.000  0.274  0.309  0.091  0.985
 
band     6 # energy    8.67646045 # occ.  1.00000000
 
ion      s     py     pz     px    dxy    dyz    dz2    dxz  x2-y2    tot
    1  0.048  0.049  0.049  0.031  0.005  0.424  0.072  0.005  0.215  0.900
 
band     7 # energy   16.89293680 # occ.  0.00000000
 
ion      s     py     pz     px    dxy    dyz    dz2    dxz  x2-y2    tot
    1  0.279  0.046  0.046  0.093  0.120  0.094  0.001  0.120  0.002  0.802
 
band     8 # energy   29.21394137 # occ.  0.00000000
 
ion      s     py     pz     px    dxy    dyz    dz2    dxz  x2-y2    tot
    1  0.016  0.012  0.012  0.147  0.053  0.037  0.025  0.053  0.075  0.430
 
band     9 # energy   31.73481529 # occ.  0.00000000
 
ion      s     py     pz     px    dxy    dyz    dz2    dxz  x2-y2    tot
    1  0.012  0.096  0.096  0.155  0.007  0.014  0.001  0.007  0.002  0.389
 
band    10 # energy   33.22114324 # occ.  0.00000000
 
ion      s     py     pz     px    dxy    dyz    dz2    dxz  x2-y2    tot
    1  0.000  0.268  0.268  0.000  0.001  0.000  0.105  0.001  0.035  0.678
 
band    11 # energy   35.75831107 # occ.  0.00000000
 
ion      s     py     pz     px    dxy    dyz    dz2    dxz  x2-y2    tot
    1  0.000  0.024  0.024  0.000  0.181  0.000  0.391  0.181  0.130  0.932
 
band    12 # energy   37.30503613 # occ.  0.00000000
 
ion      s     py     pz     px    dxy    dyz    dz2    dxz  x2-y2    tot
    1  0.048  0.015  0.015  0.012  0.000  0.208  0.120  0.000  0.360  0.777
 

 k-point     5 :   -0.43750000 0.06250000 0.06250000     weight = 0.01171875

band     1 # energy    4.43319557 # occ.  1.00000000
 
ion      s     py     pz     px    dxy    dyz    dz2    dxz  x2-y2    tot
    1  0.147  0.000  0.000  0.006  0.231  0.251  0.000  0.231  0.000  0.867
 
band     2 # energy    6.40118402 # occ.  1.00000000
 
ion      s     py     pz     px    dxy    dyz    dz2    dxz  x2-y2    tot
    1  0.000  0.002  0.002  0.000  0.061  0.194  0.158  0.061  0.474  0.952
 
band     3 # energy    6.52301305 # occ.  1.00000000
 
ion      s     py     pz     px    dxy    dyz    dz2    dxz  x2-y2    tot
    1  0.000  0.000  0.000  0.000  0.177  0.000  0.452  0.177  0.151  0.959
 
band     4 # energy    7.74215081 # occ.  1.00000000
 
ion      s     py     pz     px    dxy    dyz    dz2    dxz  x2-y2    tot
    1  0.002  0.052  0.052  0.050  0.071  0.383  0.052  0.071  0.156  0.888
 
band     5 # energy    8.27477050 # occ.  1.00000000
 
ion      s     py     pz     px    dxy    dyz    dz2    dxz  x2-y2    tot
    1  0.000  0.000  0.000  0.000  0.312  0.000  0.274  0.312  0.091  0.990
 
band     6 # energy    9.54988613 # occ.  0.00000000
 
ion      s     py     pz     px    dxy    dyz    dz2    dxz  x2-y2    tot
    1  0.008  0.141  0.141  0.157  0.047  0.061  0.032  0.047  0.096  0.730
 
band     7 # energy   14.75825798 # occ.  0.00000000
 
ion      s     py     pz     px    dxy    dyz    dz2    dxz  x2-y2    tot
    1  0.425  0.011  0.011  0.000  0.133  0.147  0.000  0.133  0.000  0.861
 
band     8 # energy   29.47704358 # occ.  0.00000000
 
ion      s     py     pz     px    dxy    dyz    dz2    dxz  x2-y2    tot
    1  0.001  0.000  0.000  0.065  0.010  0.037  0.029  0.010  0.086  0.239
 
band     9 # energy   31.48807376 # occ.  0.00000000
 
ion      s     py     pz     px    dxy    dyz    dz2    dxz  x2-y2    tot
    1  0.000  0.254  0.254  0.000  0.030  0.000  0.094  0.030  0.031  0.693
 
band    10 # energy   31.67864323 # occ.  0.00000000
 
ion      s     py     pz     px    dxy    dyz    dz2    dxz  x2-y2    tot
    1  0.037  0.093  0.093  0.294  0.010  0.008  0.008  0.010  0.024  0.576
 
band    11 # energy   36.53137732 # occ.  0.00000000
 
ion      s     py     pz     px    dxy    dyz    dz2    dxz  x2-y2    tot
    1  0.000  0.050  0.050  0.000  0.131  0.000  0.393  0.131  0.131  0.887
 
band    12 # energy   36.62367799 # occ.  0.00000000
 
ion      s     py     pz     px    dxy    dyz    dz2    dxz  x2-y2    tot
    1  0.010  0.003  0.003  0.026  0.023  0.239  0.127  0.023  0.382  0.836
 

 k-point     6 :   -0.31250000 0.06250000 0.06250000     weight = 0.01171875

band     1 # energy    4.08855697 # occ.  1.00000000
 
ion      s     py     pz     px    dxy    dyz    dz2    dxz  x2-y2    tot
    1  0.285  0.014  0.014  0.046  0.140  0.137  0.002  0.140  0.005  0.782
 
band     2 # energy    6.51981463 # occ.  1.00000000
 
ion      s     py     pz     px    dxy    dyz    dz2    dxz  x2-y2    tot
    1  0.001  0.003  0.003  0.002  0.108  0.104  0.155  0.108  0.466  0.950
 
band     3 # energy    6.64969063 # occ.  1.00000000
 
ion      s     py     pz     px    dxy    dyz    dz2    dxz  x2-y2    tot
    1  0.000  0.001  0.001  0.000  0.218  0.000  0.392  0.218  0.131  0.962
 
band     4 # energy    6.76769637 # occ.  1.00000000
 
ion      s     py     pz     px    dxy    dyz    dz2    dxz  x2-y2    tot
    1  0.062  0.059  0.059  0.061  0.014  0.555  0.003  0.014  0.009  0.836
 
band     5 # energy    8.09261319 # occ.  1.00000000
 
ion      s     py     pz     px    dxy    dyz    dz2    dxz  x2-y2    tot
    1  0.000  0.000  0.000  0.000  0.268  0.000  0.337  0.268  0.112  0.987
 
band     6 # energy    8.17430034 # occ.  1.00000000
 
ion      s     py     pz     px    dxy    dyz    dz2    dxz  x2-y2    tot
    1  0.032  0.015  0.015  0.032  0.195  0.130  0.082  0.195  0.245  0.940
 
band     7 # energy   18.47023775 # occ.  0.00000000
 
ion      s     py     pz     px    dxy    dyz    dz2    dxz  x2-y2    tot
    1  0.216  0.095  0.095  0.050  0.097  0.125  0.001  0.097  0.002  0.778
 
band     8 # energy   30.19119147 # occ.  0.00000000
 
ion      s     py     pz     px    dxy    dyz    dz2    dxz  x2-y2    tot
    1  0.007  0.006  0.006  0.002  0.000  0.097  0.022  0.000  0.065  0.205
 
band     9 # energy   30.98058487 # occ.  0.00000000
 
ion      s     py     pz     px    dxy    dyz    dz2    dxz  x2-y2    tot
    1  0.000  0.229  0.229  0.000  0.102  0.000  0.062  0.102  0.021  0.745
 
band    10 # energy   33.21116409 # occ.  0.00000000
 
ion      s     py     pz     px    dxy    dyz    dz2    dxz  x2-y2    tot
    1  0.046  0.047  0.047  0.396  0.000  0.072  0.022  0.000  0.066  0.696
 
band    11 # energy   36.50640484 # occ.  0.00000000
 
ion      s     py     pz     px    dxy    dyz    dz2    dxz  x2-y2    tot
    1  0.000  0.002  0.002  0.014  0.062  0.146  0.120  0.062  0.359  0.767
 
band    12 # energy   38.21096544 # occ.  0.00000000
 
ion      s     py     pz     px    dxy    dyz    dz2    dxz  x2-y2    tot
    1  0.000  0.062  0.062  0.000  0.045  0.000  0.410  0.045  0.137  0.762
 

 k-point     7 :   -0.18750000 0.06250000 0.06250000     weight = 0.01171875

band     1 # energy    2.60738024 # occ.  1.00000000
 
ion      s     py     pz     px    dxy    dyz    dz2    dxz  x2-y2    tot
    1  0.522  0.021  0.021  0.062  0.017  0.009  0.001  0.017  0.003  0.674
 
band     2 # energy    6.22475065 # occ.  1.00000000
 
ion      s     py     pz     px    dxy    dyz    dz2    dxz  x2-y2    tot
    1  0.008  0.011  0.011  0.007  0.134  0.625  0.000  0.134  0.001  0.932
 
band     3 # energy    6.74760800 # occ.  1.00000000
 
ion      s     py     pz     px    dxy    dyz    dz2    dxz  x2-y2    tot
    1  0.000  0.001  0.001  0.001  0.190  0.204  0.095  0.190  0.284  0.963
 
band     4 # energy    6.80101853 # occ.  1.00000000
 
ion      s     py     pz     px    dxy    dyz    dz2    dxz  x2-y2    tot
    1  0.000  0.001  0.001  0.000  0.347  0.000  0.202  0.347  0.067  0.966
 
band     5 # energy    7.47901771 # occ.  1.00000000
 
ion      s     py     pz     px    dxy    dyz    dz2    dxz  x2-y2    tot
    1  0.006  0.001  0.001  0.005  0.132  0.110  0.146  0.132  0.439  0.972
 
band     6 # energy    7.69928795 # occ.  1.00000000
 
ion      s     py     pz     px    dxy    dyz    dz2    dxz  x2-y2    tot
    1  0.000  0.000  0.000  0.000  0.136  0.000  0.531  0.136  0.177  0.981
 
band     7 # energy   24.03085696 # occ.  0.00000000
 
ion      s     py     pz     px    dxy    dyz    dz2    dxz  x2-y2    tot
    1  0.085  0.111  0.111  0.062  0.105  0.134  0.001  0.105  0.002  0.717
 
band     8 # energy   31.15267239 # occ.  0.00000000
 
ion      s     py     pz     px    dxy    dyz    dz2    dxz  x2-y2    tot
    1  0.028  0.001  0.001  0.019  0.000  0.171  0.013  0.000  0.038  0.272
 
band     9 # energy   31.52221072 # occ.  0.00000000
 
ion      s     py     pz     px    dxy    dyz    dz2    dxz  x2-y2    tot
    1  0.000  0.199  0.199  0.000  0.161  0.000  0.031  0.161  0.010  0.762
 
band    10 # energy   35.84040342 # occ.  0.00000000
 
ion      s     py     pz     px    dxy    dyz    dz2    dxz  x2-y2    tot
    1  0.025  0.006  0.006  0.351  0.030  0.153  0.025  0.030  0.074  0.701
 
band    11 # energy   36.37210346 # occ.  0.00000000
 
ion      s     py     pz     px    dxy    dyz    dz2    dxz  x2-y2    tot
    1  0.003  0.045  0.045  0.013  0.027  0.029  0.073  0.027  0.220  0.482
 
band    12 # energy   40.40781862 # occ.  0.00000000
 
ion      s     py     pz     px    dxy    dyz    dz2    dxz  x2-y2    tot
    1  0.001  0.137  0.100  0.049  0.030  0.057  0.023  0.023  0.171  0.591
 

 k-point     8 :   -0.06250000 0.06250000 0.06250000     weight = 0.01171875

band     1 # energy    1.21549416 # occ.  1.00000000
 
ion      s     py     pz     px    dxy    dyz    dz2    dxz  x2-y2    tot
    1  0.626  0.003  0.003  0.027  0.000  0.000  0.000  0.000  0.001  0.661
 
band     2 # energy    6.41741057 # occ.  1.00000000
 
ion      s     py     pz     px    dxy    dyz    dz2    dxz  x2-y2    tot
    1  0.000  0.001  0.001  0.000  0.057  0.842  0.000  0.057  0.000  0.959
 
band     3 # energy    6.70703236 # occ.  1.00000000
 
ion      s     py     pz     px    dxy    dyz    dz2    dxz  x2-y2    tot
    1  0.000  0.001  0.001  0.000  0.419  0.116  0.003  0.419  0.008  0.966
 
band     4 # energy    6.71058205 # occ.  1.00000000
 
ion      s     py     pz     px    dxy    dyz    dz2    dxz  x2-y2    tot
    1  0.000  0.001  0.001  0.000  0.476  0.000  0.010  0.476  0.003  0.966
 
band     5 # energy    7.35540988 # occ.  1.00000000
 
ion      s     py     pz     px    dxy    dyz    dz2    dxz  x2-y2    tot
    1  0.001  0.000  0.000  0.000  0.004  0.001  0.242  0.004  0.725  0.977
 
band     6 # energy    7.52975687 # occ.  1.00000000
 
ion      s     py     pz     px    dxy    dyz    dz2    dxz  x2-y2    tot
    1  0.000  0.000  0.000  0.000  0.006  0.000  0.727  0.006  0.242  0.982
 
band     7 # energy   29.90023567 # occ.  0.00000000
 
ion      s     py     pz     px    dxy    dyz    dz2    dxz  x2-y2    tot
    1  0.009  0.057  0.057  0.019  0.076  0.195  0.000  0.076  0.001  0.490
 
band     8 # energy   32.21493421 # occ.  0.00000000
 
ion      s     py     pz     px    dxy    dyz    dz2    dxz  x2-y2    tot
    1  0.032  0.042  0.042  0.074  0.033  0.053  0.004  0.033  0.013  0.325
 
band     9 # energy   32.90741276 # occ.  0.00000000
 
ion      s     py     pz     px    dxy    dyz    dz2    dxz  x2-y2    tot
    1  0.000  0.174  0.174  0.000  0.167  0.000  0.005  0.167  0.002  0.689
 
band    10 # energy   34.89759021 # occ.  0.00000000
 
ion      s     py     pz     px    dxy    dyz    dz2    dxz  x2-y2    tot
    1  0.010  0.080  0.080  0.073  0.023  0.002  0.020  0.023  0.060  0.370
 
band    11 # energy   38.56628568 # occ.  0.00000000
 
ion      s     py     pz     px    dxy    dyz    dz2    dxz  x2-y2    tot
    1  0.000  0.001  0.001  0.071  0.197  0.383  0.002  0.197  0.006  0.858
 
band    12 # energy   40.44351640 # occ.  0.00000000
 
ion      s     py     pz     px    dxy    dyz    dz2    dxz  x2-y2    tot
    1  0.001  0.000  0.000  0.148  0.007  0.462  0.001  0.020  0.005  0.644
 

 k-point     9 :    0.18750000 0.18750000 0.06250000     weight = 0.01171875

band     1 # energy    1.94725161 # occ.  1.00000000
 
ion      s     py     pz     px    dxy    dyz    dz2    dxz  x2-y2    tot
    1  0.575  0.003  0.070  0.003  0.000  0.001  0.010  0.001  0.000  0.663
 
band     2 # energy    6.17831710 # occ.  1.00000000
 
ion      s     py     pz     px    dxy    dyz    dz2    dxz  x2-y2    tot
    1  0.000  0.001  0.000  0.001  0.911  0.019  0.000  0.019  0.000  0.950
 
band     3 # energy    6.87499782 # occ.  1.00000000
 
ion      s     py     pz     px    dxy    dyz    dz2    dxz  x2-y2    tot
    1  0.000  0.002  0.000  0.002  0.034  0.383  0.161  0.383  0.000  0.966
 
band     4 # energy    6.90475211 # occ.  1.00000000
 
ion      s     py     pz     px    dxy    dyz    dz2    dxz  x2-y2    tot
    1  0.000  0.002  0.000  0.002  0.000  0.462  0.000  0.462  0.038  0.967
 
band     5 # energy    7.20332816 # occ.  1.00000000
 
ion      s     py     pz     px    dxy    dyz    dz2    dxz  x2-y2    tot
    1  0.007  0.000  0.003  0.000  0.006  0.077  0.798  0.077  0.000  0.968
 
band     6 # energy    7.63922061 # occ.  1.00000000
 
ion      s     py     pz     px    dxy    dyz    dz2    dxz  x2-y2    tot
    1  0.000  0.000  0.000  0.000  0.000  0.019  0.000  0.019  0.945  0.983
 
band     7 # energy   28.32352251 # occ.  0.00000000
 
ion      s     py     pz     px    dxy    dyz    dz2    dxz  x2-y2    tot
    1  0.020  0.108  0.018  0.108  0.201  0.092  0.008  0.092  0.000  0.649
 
band     8 # energy   30.68391510 # occ.  0.00000000
 
ion      s     py     pz     px    dxy    dyz    dz2    dxz  x2-y2    tot
    1  0.000  0.203  0.000  0.203  0.000  0.161  0.000  0.161  0.006  0.734
 
band     9 # energy   30.89249381 # occ.  0.00000000
 
ion      s     py     pz     px    dxy    dyz    dz2    dxz  x2-y2    tot
    1  0.031  0.018  0.023  0.018  0.222  0.015  0.065  0.015  0.000  0.407
 
band    10 # energy   33.09365473 # occ.  0.00000000
 
ion      s     py     pz     px    dxy    dyz    dz2    dxz  x2-y2    tot
    1  0.005  0.066  0.000  0.066  0.042  0.041  0.189  0.041  0.000  0.450
 
band    11 # energy   37.65654681 # occ.  0.00000000
 
ion      s     py     pz     px    dxy    dyz    dz2    dxz  x2-y2    tot
    1  0.143  0.018  0.572  0.018  0.002  0.001  0.130  0.001  0.000  0.885
 
band    12 # energy   40.93412278 # occ.  0.00000000
 
ion      s     py     pz     px    dxy    dyz    dz2    dxz  x2-y2    tot
    1  0.015  0.000  0.001  0.000  0.350  0.131  0.055  0.131  0.000  0.683
 

 k-point    10 :    0.31250000 0.18750000 0.06250000     weight = 0.02343750

band     1 # energy    3.23648757 # occ.  1.00000000
 
ion      s     py     pz     px    dxy    dyz    dz2    dxz  x2-y2    tot
    1  0.460  0.020  0.115  0.002  0.002  0.028  0.048  0.004  0.000  0.680
 
band     2 # energy    5.91722096 # occ.  1.00000000
 
ion      s     py     pz     px    dxy    dyz    dz2    dxz  x2-y2    tot
    1  0.001  0.002  0.001  0.009  0.840  0.006  0.003  0.075  0.000  0.937
 
band     3 # energy    6.67555567 # occ.  1.00000000
 
ion      s     py     pz     px    dxy    dyz    dz2    dxz  x2-y2    tot
    1  0.006  0.003  0.002  0.000  0.017  0.330  0.547  0.015  0.036  0.954
 
band     4 # energy    7.12502245 # occ.  1.00000000
 
ion      s     py     pz     px    dxy    dyz    dz2    dxz  x2-y2    tot
    1  0.002  0.002  0.002  0.003  0.040  0.126  0.053  0.533  0.206  0.967
 
band     5 # energy    7.45293576 # occ.  1.00000000
 
ion      s     py     pz     px    dxy    dyz    dz2    dxz  x2-y2    tot
    1  0.013  0.003  0.010  0.003  0.038  0.106  0.235  0.326  0.229  0.963
 
band     6 # energy    7.98845792 # occ.  1.00000000
 
ion      s     py     pz     px    dxy    dyz    dz2    dxz  x2-y2    tot
    1  0.013  0.004  0.007  0.000  0.001  0.366  0.073  0.003  0.510  0.976
 
band     7 # energy   24.56300556 # occ.  0.00000000
 
ion      s     py     pz     px    dxy    dyz    dz2    dxz  x2-y2    tot
    1  0.057  0.102  0.022  0.188  0.161  0.068  0.014  0.105  0.003  0.721
 
band     8 # energy   27.09342460 # occ.  0.00000000
 
ion      s     py     pz     px    dxy    dyz    dz2    dxz  x2-y2    tot
    1  0.042  0.152  0.014  0.137  0.090  0.102  0.039  0.068  0.016  0.661
 
band     9 # energy   30.80729763 # occ.  0.00000000
 
ion      s     py     pz     px    dxy    dyz    dz2    dxz  x2-y2    tot
    1  0.011  0.048  0.105  0.021  0.024  0.017  0.314  0.013  0.003  0.556
 
band    10 # energy   32.65697657 # occ.  0.00000000
 
ion      s     py     pz     px    dxy    dyz    dz2    dxz  x2-y2    tot
    1  0.032  0.006  0.084  0.096  0.297  0.002  0.042  0.051  0.001  0.611
 
band    11 # energy   36.72093583 # occ.  0.00000000
 
ion      s     py     pz     px    dxy    dyz    dz2    dxz  x2-y2    tot
    1  0.140  0.186  0.302  0.029  0.021  0.045  0.000  0.006  0.000  0.729
 
band    12 # energy   40.77832255 # occ.  0.00000000
 
ion      s     py     pz     px    dxy    dyz    dz2    dxz  x2-y2    tot
    1  0.019  0.024  0.018  0.002  0.051  0.006  0.165  0.027  0.151  0.465
 

 k-point    11 :    0.43750000 0.18750000 0.06250000     weight = 0.02343750

band     1 # energy    4.56480439 # occ.  1.00000000
 
ion      s     py     pz     px    dxy    dyz    dz2    dxz  x2-y2    tot
    1  0.224  0.017  0.081  0.001  0.151  0.143  0.090  0.083  0.001  0.792
 
band     2 # energy    6.02556471 # occ.  1.00000000
 
ion      s     py     pz     px    dxy    dyz    dz2    dxz  x2-y2    tot
    1  0.012  0.031  0.018  0.031  0.341  0.027  0.352  0.063  0.012  0.887
 
band     3 # energy    6.41717523 # occ.  1.00000000
 
ion      s     py     pz     px    dxy    dyz    dz2    dxz  x2-y2    tot
    1  0.024  0.001  0.019  0.007  0.333  0.269  0.236  0.005  0.042  0.935
 
band     4 # energy    6.97923354 # occ.  1.00000000
 
ion      s     py     pz     px    dxy    dyz    dz2    dxz  x2-y2    tot
    1  0.002  0.003  0.005  0.001  0.040  0.071  0.050  0.286  0.504  0.962
 
band     5 # energy    8.07035576 # occ.  1.00000000
 
ion      s     py     pz     px    dxy    dyz    dz2    dxz  x2-y2    tot
    1  0.003  0.001  0.006  0.003  0.035  0.069  0.048  0.474  0.342  0.980
 
band     6 # energy    9.11196884 # occ.  0.99921697
 
ion      s     py     pz     px    dxy    dyz    dz2    dxz  x2-y2    tot
    1  0.088  0.030  0.078  0.015  0.014  0.386  0.177  0.038  0.073  0.899
 
band     7 # energy   18.97780915 # occ.  0.00000000
 
ion      s     py     pz     px    dxy    dyz    dz2    dxz  x2-y2    tot
    1  0.180  0.098  0.021  0.164  0.142  0.062  0.013  0.081  0.003  0.765
 
band     8 # energy   26.55628590 # occ.  0.00000000
 
ion      s     py     pz     px    dxy    dyz    dz2    dxz  x2-y2    tot
    1  0.021  0.114  0.000  0.180  0.085  0.059  0.088  0.040  0.053  0.640
 
band     9 # energy   28.35582737 # occ.  0.00000000
 
ion      s     py     pz     px    dxy    dyz    dz2    dxz  x2-y2    tot
    1  0.072  0.010  0.235  0.061  0.000  0.000  0.239  0.027  0.013  0.657
 
band    10 # energy   32.23962547 # occ.  0.00000000
 
ion      s     py     pz     px    dxy    dyz    dz2    dxz  x2-y2    tot
    1  0.060  0.146  0.098  0.025  0.214  0.017  0.000  0.012  0.006  0.578
 
band    11 # energy   38.71154698 # occ.  0.00000000
 
ion      s     py     pz     px    dxy    dyz    dz2    dxz  x2-y2    tot
    1  0.013  0.117  0.003  0.003  0.177  0.021  0.075  0.037  0.195  0.640
 
band    12 # energy   40.94059079 # occ.  0.00000000
 
ion      s     py     pz     px    dxy    dyz    dz2    dxz  x2-y2    tot
    1  0.091  0.095  0.099  0.062  0.010  0.002  0.224  0.006  0.010  0.601
 

 k-point    12 :   -0.43750000 0.18750000 0.06250000     weight = 0.02343750

band     1 # energy    4.86407799 # occ.  1.00000000
 
ion      s     py     pz     px    dxy    dyz    dz2    dxz  x2-y2    tot
    1  0.107  0.000  0.020  0.008  0.331  0.235  0.010  0.166  0.000  0.877
 
band     2 # energy    6.04063707 # occ.  1.00000000
 
ion      s     py     pz     px    dxy    dyz    dz2    dxz  x2-y2    tot
    1  0.000  0.022  0.002  0.009  0.032  0.077  0.683  0.012  0.075  0.912
 
band     3 # energy    6.81205316 # occ.  1.00000000
 
ion      s     py     pz     px    dxy    dyz    dz2    dxz  x2-y2    tot
    1  0.001  0.007  0.008  0.023  0.073  0.235  0.101  0.110  0.383  0.942
 
band     4 # energy    6.87106746 # occ.  1.00000000
 
ion      s     py     pz     px    dxy    dyz    dz2    dxz  x2-y2    tot
    1  0.002  0.030  0.046  0.021  0.360  0.096  0.001  0.142  0.212  0.911
 
band     5 # energy    8.24528395 # occ.  1.00000000
 
ion      s     py     pz     px    dxy    dyz    dz2    dxz  x2-y2    tot
    1  0.000  0.000  0.000  0.000  0.037  0.174  0.029  0.471  0.278  0.989
 
band     6 # energy   11.24575690 # occ.  0.00000000
 
ion      s     py     pz     px    dxy    dyz    dz2    dxz  x2-y2    tot
    1  0.014  0.121  0.173  0.120  0.050  0.104  0.144  0.016  0.018  0.759
 
band     7 # energy   14.97159814 # occ.  0.00000000
 
ion      s     py     pz     px    dxy    dyz    dz2    dxz  x2-y2    tot
    1  0.395  0.015  0.008  0.052  0.154  0.107  0.001  0.106  0.001  0.839
 
band     8 # energy   26.02381056 # occ.  0.00000000
 
ion      s     py     pz     px    dxy    dyz    dz2    dxz  x2-y2    tot