   2   2   0   0
  0.2137190E+02  0.2470000E-09  0.2470000E-09  0.8090000E-09  0.5000000E-15
  1.000000000000000E-004
  CAR 
 Co-hcc                                  
     21.13189416     -4.16391142  301      3.01819370      1.00000000
     -4.164  0.0000E+00  0.0000E+00  0.0000E+00  0.0000E+00
     -4.080  0.0000E+00  0.0000E+00  0.0000E+00  0.0000E+00
     -3.995  0.0000E+00  0.0000E+00  0.0000E+00  0.0000E+00
     -3.911  0.0000E+00  0.0000E+00  0.0000E+00  0.0000E+00
     -3.827  0.0000E+00  0.0000E+00  0.0000E+00  0.0000E+00
     -3.742  0.0000E+00  0.0000E+00  0.0000E+00  0.0000E+00
     -3.658  0.0000E+00  0.0000E+00  0.0000E+00  0.0000E+00
     -3.574  0.0000E+00  0.0000E+00  0.0000E+00  0.0000E+00
     -3.489  0.0000E+00  0.0000E+00  0.0000E+00  0.0000E+00
     -3.405  0.0000E+00  0.0000E+00  0.0000E+00  0.0000E+00
     -3.321  0.0000E+00  0.0000E+00  0.0000E+00  0.0000E+00
     -3.236  0.1329E-10  0.0000E+00  0.1120E-11  0.0000E+00
     -3.152  0.3920E-05  0.0000E+00  0.3305E-06  0.0000E+00
     -3.068  0.5381E-02  0.2743E-16  0.4541E-03  0.2313E-17
     -2.983  0.8906E-01  0.5099E-09  0.7964E-02  0.4300E-10
     -2.899  0.1402E+00  0.3850E-04  0.1978E-01  0.3246E-05
     -2.815  0.5203E-01  0.1470E-01  0.2417E-01  0.1243E-02
     -2.730  0.1177E+00  0.9537E-01  0.3410E-01  0.9284E-02
     -2.646  0.5349E-01  0.1272E+00  0.3861E-01  0.2001E-01
     -2.562  0.1487E+00  0.1330E-01  0.5114E-01  0.2113E-01
     -2.478  0.5129E-01  0.1018E+00  0.5547E-01  0.2972E-01
     -2.393  0.1071E-02  0.5888E-01  0.5556E-01  0.3468E-01
     -2.309  0.1643E-06  0.8594E-02  0.5556E-01  0.3540E-01
     -2.225  0.1630E-06  0.1191E+00  0.5556E-01  0.4545E-01
     -2.140  0.2397E-02  0.7870E-01  0.5576E-01  0.5208E-01
     -2.056  0.2380E+00  0.4049E-01  0.7582E-01  0.5550E-01
     -1.972  0.9484E+00  0.6949E-03  0.1558E+00  0.5556E-01
     -1.887  0.4479E+00  0.1250E-02  0.1936E+00  0.5566E-01
     -1.803  0.7576E+00  0.1694E+00  0.2574E+00  0.6994E-01
     -1.719  0.5479E+00  0.6918E+00  0.3036E+00  0.1283E+00
     -1.634  0.8808E+00  0.6021E+00  0.3779E+00  0.1790E+00
     -1.550  0.1298E+00  0.9335E-01  0.3888E+00  0.1869E+00
     -1.466  0.4963E-03  0.7450E+00  0.3889E+00  0.2497E+00
     -1.381  0.1082E-07  0.1678E+00  0.3889E+00  0.2639E+00
     -1.297  0.4879E-11  0.1579E+00  0.3889E+00  0.2772E+00
     -1.213  0.6006E-05  0.7709E+00  0.3889E+00  0.3422E+00
     -1.128  0.3197E-01  0.4313E+00  0.3916E+00  0.3786E+00
     -1.044  0.1147E+01  0.1219E+00  0.4883E+00  0.3888E+00
     -0.960  0.9383E+00  0.5340E-03  0.5674E+00  0.3889E+00
     -0.875  0.2392E+01  0.1230E-07  0.7691E+00  0.3889E+00
     -0.791  0.1398E+01  0.1152E-14  0.8870E+00  0.3889E+00
     -0.707  0.2297E-01  0.0000E+00  0.8889E+00  0.3889E+00
     -0.622  0.6013E-02  0.0000E+00  0.8894E+00  0.3889E+00
     -0.538  0.9673E+00  0.0000E+00  0.9710E+00  0.3889E+00
     -0.454  0.7922E+01  0.0000E+00  0.1639E+01  0.3889E+00
     -0.370  0.4541E+01  0.0000E+00  0.2022E+01  0.3889E+00
     -0.285  0.8857E+00  0.1330E-11  0.2097E+01  0.3889E+00
     -0.201  0.5054E+01  0.1601E-05  0.2523E+01  0.3889E+00
     -0.117  0.4894E+01  0.8322E-02  0.2935E+01  0.3896E+00
     -0.032  0.1692E+01  0.3409E+00  0.3078E+01  0.4183E+00
      0.052  0.2870E+01  0.9105E+00  0.3320E+01  0.4951E+00
      0.136  0.5065E+01  0.3760E+00  0.3747E+01  0.5268E+00
      0.221  0.3852E+01  0.1769E+01  0.4072E+01  0.6760E+00
      0.305  0.1357E+01  0.1576E+01  0.4186E+01  0.8089E+00
      0.389  0.4657E+00  0.3136E+01  0.4226E+01  0.1073E+01
      0.474  0.4469E+01  0.1448E+01  0.4602E+01  0.1195E+01
      0.558  0.3641E+01  0.3096E+00  0.4909E+01  0.1222E+01
      0.642  0.1222E+01  0.8481E-02  0.5012E+01  0.1222E+01
      0.727  0.2861E+01  0.1672E-05  0.5254E+01  0.1222E+01
      0.811  0.6525E+01  0.4004E-03  0.5804E+01  0.1222E+01
      0.895  0.1306E+02  0.4304E+00  0.6905E+01  0.1259E+01
      0.980  0.4673E+01  0.5434E+01  0.7299E+01  0.1717E+01
      1.064  0.2861E+01  0.2027E+01  0.7540E+01  0.1888E+01
      1.148  0.8989E+01  0.1419E-01  0.8298E+01  0.1889E+01
      1.233  0.5260E+01  0.7283E-06  0.8742E+01  0.1889E+01
      1.317  0.1981E+01  0.5875E-06  0.8909E+01  0.1889E+01
      1.401  0.5564E+01  0.5537E-02  0.9378E+01  0.1889E+01
      1.485  0.3937E+01  0.4404E+00  0.9710E+01  0.1926E+01
      1.570  0.2029E+01  0.1257E+01  0.9881E+01  0.2033E+01
      1.654  0.9512E-01  0.1654E+01  0.9889E+01  0.2172E+01
      1.738  0.1193E+00  0.4667E+01  0.9899E+01  0.2566E+01
      1.823  0.5162E+00  0.7616E+01  0.9943E+01  0.3208E+01
      1.907  0.7730E+00  0.6448E+01  0.1001E+02  0.3751E+01
      1.991  0.1014E+01  0.4505E+01  0.1009E+02  0.4131E+01
      2.076  0.2883E+01  0.8804E+00  0.1034E+02  0.4205E+01
      2.160  0.1215E+01  0.7730E+00  0.1044E+02  0.4271E+01
      2.244  0.1429E+01  0.2254E+01  0.1056E+02  0.4461E+01
      2.329  0.8940E+00  0.3740E+01  0.1063E+02  0.4776E+01
      2.413  0.2648E+00  0.1799E+01  0.1066E+02  0.4928E+01
      2.497  0.1818E+01  0.7308E+00  0.1081E+02  0.4989E+01
      2.582  0.2245E+01  0.2129E+01  0.1100E+02  0.5169E+01
      2.666  0.3506E+00  0.3107E+01  0.1103E+02  0.5431E+01
      2.750  0.3717E+00  0.6545E+01  0.1106E+02  0.5983E+01
      2.835  0.1429E+00  0.2948E+01  0.1107E+02  0.6231E+01
      2.919  0.4509E-01  0.2847E+01  0.1108E+02  0.6471E+01
      3.003  0.2354E-03  0.4516E+01  0.1108E+02  0.6852E+01
      3.088  0.6578E-08  0.4454E+01  0.1108E+02  0.7228E+01
      3.172  0.7315E-15  0.8642E+01  0.1108E+02  0.7956E+01
      3.256  0.0000E+00  0.3685E+01  0.1108E+02  0.8267E+01
      3.341  0.0000E+00  0.4066E+01  0.1108E+02  0.8610E+01
      3.425  0.0000E+00  0.2986E+01  0.1108E+02  0.8862E+01
      3.509  0.7336E-10  0.5268E+01  0.1108E+02  0.9306E+01
      3.593  0.2229E-04  0.4774E+01  0.1108E+02  0.9708E+01
      3.678  0.3108E-01  0.1120E+01  0.1108E+02  0.9803E+01
      3.762  0.3660E+00  0.2217E+01  0.1111E+02  0.9990E+01
      3.846  0.9678E-01  0.2277E+01  0.1112E+02  0.1018E+02
      3.931  0.2961E-03  0.7601E+00  0.1112E+02  0.1025E+02
      4.015  0.1528E-03  0.2558E+01  0.1112E+02  0.1046E+02
      4.099  0.3838E-01  0.4468E+01  0.1112E+02  0.1084E+02
      4.184  0.1958E+00  0.8113E+00  0.1114E+02  0.1091E+02
      4.268  0.7546E+00  0.3563E-01  0.1120E+02  0.1091E+02
      4.352  0.1637E+00  0.2653E-04  0.1122E+02  0.1091E+02
      4.437  0.3924E-03  0.1329E-04  0.1122E+02  0.1091E+02
      4.521  0.4684E-08  0.2519E-01  0.1122E+02  0.1091E+02
      4.605  0.2194E-15  0.1019E+01  0.1122E+02  0.1100E+02
      4.690  0.0000E+00  0.1407E+01  0.1122E+02  0.1112E+02
      4.774  0.0000E+00  0.1836E+00  0.1122E+02  0.1113E+02
      4.858  0.5486E-16  0.1139E-02  0.1122E+02  0.1113E+02
      4.943  0.1432E-08  0.3119E-03  0.1122E+02  0.1113E+02
      5.027  0.1887E-03  0.1487E+00  0.1122E+02  0.1114E+02
      5.111  0.1205E+00  0.7521E+00  0.1123E+02  0.1121E+02
      5.196  0.1063E+01  0.9695E-01  0.1132E+02  0.1122E+02
      5.280  0.2102E+01  0.3364E+00  0.1149E+02  0.1124E+02
      5.364  0.5787E+00  0.4352E+00  0.1154E+02  0.1128E+02
      5.448  0.1439E+01  0.3911E+00  0.1166E+02  0.1131E+02
      5.533  0.2122E+01  0.1626E+00  0.1184E+02  0.1133E+02
      5.617  0.5799E+00  0.4349E+00  0.1189E+02  0.1136E+02
      5.701  0.7481E-01  0.1981E+00  0.1190E+02  0.1138E+02
      5.786  0.9205E+00  0.8567E-02  0.1197E+02  0.1138E+02
      5.870  0.1492E+01  0.1056E-01  0.1210E+02  0.1138E+02
      5.954  0.3873E+00  0.1223E+00  0.1213E+02  0.1139E+02
      6.039  0.6265E+00  0.1152E+00  0.1219E+02  0.1140E+02
      6.123  0.2366E-01  0.1665E+01  0.1219E+02  0.1154E+02
      6.207  0.9465E-02  0.2014E+01  0.1219E+02  0.1171E+02
      6.292  0.5013E+00  0.3272E+00  0.1223E+02  0.1174E+02
      6.376  0.4813E+00  0.1649E+01  0.1227E+02  0.1188E+02
      6.460  0.7049E-01  0.6729E+00  0.1228E+02  0.1194E+02
      6.545  0.8052E-02  0.5694E-01  0.1228E+02  0.1194E+02
      6.629  0.7101E-02  0.1242E+01  0.1228E+02  0.1205E+02
      6.713  0.2787E+00  0.7844E+00  0.1230E+02  0.1211E+02
      6.798  0.2064E+00  0.7559E+00  0.1232E+02  0.1218E+02
      6.882  0.1651E+00  0.9453E+00  0.1233E+02  0.1226E+02
      6.966  0.7470E+00  0.2617E+00  0.1240E+02  0.1228E+02
      7.051  0.7839E-01  0.1470E-02  0.1240E+02  0.1228E+02
      7.135  0.1306E+00  0.8133E-01  0.1241E+02  0.1228E+02
      7.219  0.7566E+00  0.3735E+00  0.1248E+02  0.1232E+02
      7.304  0.1008E+00  0.3908E-01  0.1249E+02  0.1232E+02
      7.388  0.2762E-02  0.5956E-02  0.1249E+02  0.1232E+02
      7.472  0.3374E+00  0.4380E+00  0.1251E+02  0.1236E+02
      7.556  0.6249E+00  0.5453E+00  0.1257E+02  0.1240E+02
      7.641  0.2337E-01  0.5548E+00  0.1257E+02  0.1245E+02
      7.725  0.1222E-03  0.4271E+00  0.1257E+02  0.1249E+02
      7.809  0.6557E-01  0.5451E-02  0.1257E+02  0.1249E+02
      7.894  0.3782E+00  0.7068E-04  0.1261E+02  0.1249E+02
      7.978  0.5017E-01  0.7691E-01  0.1261E+02  0.1249E+02
      8.062  0.6302E-04  0.7461E+00  0.1261E+02  0.1256E+02
      8.147  0.3426E-08  0.1648E+00  0.1261E+02  0.1257E+02
      8.231  0.3015E-03  0.4023E-03  0.1261E+02  0.1257E+02
      8.315  0.1466E+00  0.1248E-01  0.1262E+02  0.1257E+02
      8.400  0.7528E+00  0.3167E+00  0.1269E+02  0.1260E+02
      8.484  0.8854E-01  0.1637E+00  0.1269E+02  0.1261E+02
      8.568  0.9551E-04  0.1207E-02  0.1269E+02  0.1261E+02
      8.653  0.4846E-09  0.5608E-05  0.1269E+02  0.1261E+02
      8.737  0.0000E+00  0.2212E-01  0.1269E+02  0.1261E+02
      8.821  0.2716E-09  0.6176E+00  0.1269E+02  0.1267E+02
      8.906  0.6612E-04  0.3457E+00  0.1269E+02  0.1269E+02
      8.990  0.7477E-01  0.2829E-02  0.1270E+02  0.1269E+02
      9.074  0.7445E+00  0.1301E-06  0.1276E+02  0.1269E+02
      9.159  0.1996E+00  0.2458E-13  0.1278E+02  0.1269E+02
      9.243  0.5272E+00  0.0000E+00  0.1282E+02  0.1269E+02
      9.327  0.4728E+00  0.4682E-12  0.1286E+02  0.1269E+02
      9.412  0.7263E+00  0.9903E-06  0.1293E+02  0.1269E+02
      9.496  0.4598E+00  0.8834E-02  0.1296E+02  0.1270E+02
      9.580  0.4909E-01  0.4919E+00  0.1297E+02  0.1274E+02
      9.664  0.4339E+00  0.4831E+00  0.1301E+02  0.1278E+02
      9.749  0.2476E+00  0.3843E+00  0.1303E+02  0.1281E+02
      9.833  0.1098E+01  0.5904E+00  0.1312E+02  0.1286E+02
      9.917  0.1957E+01  0.1806E-01  0.1328E+02  0.1286E+02
     10.002  0.1366E+01  0.8896E-02  0.1340E+02  0.1286E+02
     10.086  0.6159E+00  0.4306E+00  0.1345E+02  0.1290E+02
     10.170  0.4329E+00  0.1110E+01  0.1349E+02  0.1299E+02
     10.255  0.1470E+00  0.1701E+01  0.1350E+02  0.1314E+02
     10.339  0.9924E-02  0.6031E+00  0.1350E+02  0.1319E+02
     10.423  0.2683E+00  0.1209E+01  0.1352E+02  0.1329E+02
     10.508  0.2888E+00  0.6105E+00  0.1355E+02  0.1334E+02
     10.592  0.1155E+00  0.8695E+00  0.1356E+02  0.1341E+02
     10.676  0.5904E-01  0.2889E+00  0.1356E+02  0.1344E+02
     10.761  0.2941E-01  0.3576E+00  0.1356E+02  0.1347E+02
     10.845  0.1151E+01  0.3758E+00  0.1366E+02  0.1350E+02
     10.929  0.8684E+00  0.7681E-01  0.1374E+02  0.1351E+02
     11.014  0.4663E-01  0.3858E+00  0.1374E+02  0.1354E+02
     11.098  0.6773E+00  0.1261E+00  0.1380E+02  0.1355E+02
     11.182  0.2736E+00  0.2309E+00  0.1382E+02  0.1357E+02
     11.267  0.6263E-01  0.1650E+01  0.1382E+02  0.1371E+02
     11.351  0.1432E+01  0.3421E+00  0.1395E+02  0.1374E+02
     11.435  0.1491E+01  0.1295E-02  0.1407E+02  0.1374E+02
     11.519  0.4310E+00  0.1152E+00  0.1411E+02  0.1375E+02
     11.604  0.3649E+00  0.3639E+00  0.1414E+02  0.1378E+02
     11.688  0.2552E+00  0.3540E+00  0.1416E+02  0.1381E+02
     11.772  0.5462E+00  0.5565E+00  0.1421E+02  0.1385E+02
     11.857  0.1060E+01  0.2565E+00  0.1430E+02  0.1387E+02
     11.941  0.6586E+00  0.1438E+01  0.1435E+02  0.1400E+02
     12.025  0.1598E+01  0.1694E+01  0.1449E+02  0.1414E+02
     12.110  0.1430E+01  0.4828E+00  0.1461E+02  0.1418E+02
     12.194  0.7936E+00  0.4019E+00  0.1467E+02  0.1421E+02
     12.278  0.4119E-01  0.2923E+00  0.1468E+02  0.1424E+02
     12.363  0.6676E+00  0.2167E+00  0.1473E+02  0.1426E+02
     12.447  0.2862E+00  0.1023E+00  0.1476E+02  0.1427E+02
     12.531  0.1736E-02  0.6600E+00  0.1476E+02  0.1432E+02
     12.616  0.1328E+00  0.1605E+01  0.1477E+02  0.1446E+02
     12.700  0.2004E+01  0.1592E+01  0.1494E+02  0.1459E+02
     12.784  0.1086E+01  0.8033E+00  0.1503E+02  0.1466E+02
     12.869  0.2327E+00  0.2280E+00  0.1505E+02  0.1468E+02
     12.953  0.2470E-01  0.9925E+00  0.1505E+02  0.1476E+02
     13.037  0.3488E+00  0.1351E+01  0.1508E+02  0.1487E+02
     13.122  0.1234E+00  0.1026E+00  0.1509E+02  0.1488E+02
     13.206  0.5524E-03  0.1151E+01  0.1509E+02  0.1498E+02
     13.290  0.3076E-03  0.1272E+01  0.1509E+02  0.1509E+02
     13.375  0.1479E+00  0.2714E-01  0.1510E+02  0.1509E+02
     13.459  0.7524E+00  0.3942E-05  0.1517E+02  0.1509E+02
     13.543  0.8767E-01  0.2509E-11  0.1517E+02  0.1509E+02
     13.627  0.9347E-04  0.0000E+00  0.1517E+02  0.1509E+02
     13.712  0.2819E-08  0.5900E-12  0.1517E+02  0.1509E+02
     13.796  0.2566E-03  0.1159E-05  0.1517E+02  0.1509E+02
     13.880  0.1369E+00  0.9625E-02  0.1519E+02  0.1509E+02
     13.965  0.7553E+00  0.5037E+00  0.1525E+02  0.1513E+02
     14.049  0.9608E-01  0.4676E+00  0.1526E+02  0.1517E+02
     14.133  0.1721E+00  0.7387E-02  0.1527E+02  0.1517E+02
     14.218  0.1089E+01  0.2949E-05  0.1536E+02  0.1517E+02
     14.302  0.3970E+00  0.1608E-01  0.1540E+02  0.1517E+02
     14.386  0.9311E+00  0.9040E+00  0.1548E+02  0.1525E+02
     14.471  0.1012E+01  0.1164E+01  0.1556E+02  0.1535E+02
     14.555  0.2182E-01  0.5699E-01  0.1556E+02  0.1535E+02
     14.639  0.3415E-05  0.1377E-01  0.1556E+02  0.1536E+02
     14.724  0.2491E-11  0.3226E+00  0.1556E+02  0.1538E+02
     14.808  0.3360E-11  0.1995E+00  0.1556E+02  0.1540E+02
     14.892  0.3743E-05  0.8204E+00  0.1556E+02  0.1547E+02
     14.977  0.1800E-01  0.1006E+01  0.1556E+02  0.1555E+02
     15.061  0.5900E+00  0.1089E+00  0.1561E+02  0.1556E+02
     15.145  0.3766E+00  0.2180E-03  0.1565E+02  0.1556E+02
     15.230  0.3661E-02  0.7680E-01  0.1565E+02  0.1557E+02
     15.314  0.2042E-06  0.7461E+00  0.1565E+02  0.1563E+02
     15.398  0.4696E-13  0.1650E+00  0.1565E+02  0.1565E+02
     15.482  0.0000E+00  0.3998E-03  0.1565E+02  0.1565E+02
     15.567  0.0000E+00  0.4830E-08  0.1565E+02  0.1565E+02
     15.651  0.0000E+00  0.2194E-15  0.1565E+02  0.1565E+02
     15.735  0.0000E+00  0.0000E+00  0.1565E+02  0.1565E+02
     15.820  0.0000E+00  0.0000E+00  0.1565E+02  0.1565E+02
     15.904  0.0000E+00  0.0000E+00  0.1565E+02  0.1565E+02
     15.988  0.0000E+00  0.0000E+00  0.1565E+02  0.1565E+02
     16.073  0.0000E+00  0.0000E+00  0.1565E+02  0.1565E+02
     16.157  0.0000E+00  0.0000E+00  0.1565E+02  0.1565E+02
     16.241  0.3292E-15  0.0000E+00  0.1565E+02  0.1565E+02
     16.326  0.6340E-08  0.0000E+00  0.1565E+02  0.1565E+02
     16.410  0.4720E-03  0.0000E+00  0.1565E+02  0.1565E+02
     16.494  0.1766E+00  0.0000E+00  0.1566E+02  0.1565E+02
     16.579  0.7408E+00  0.5197E-10  0.1572E+02  0.1565E+02
     16.663  0.7038E-01  0.2279E-04  0.1573E+02  0.1565E+02
     16.747  0.2566E-03  0.4500E-01  0.1573E+02  0.1565E+02
     16.832  0.4230E-01  0.7027E+00  0.1573E+02  0.1571E+02
     16.916  0.1154E+00  0.2424E+00  0.1574E+02  0.1573E+02
     17.000  0.6805E-02  0.9851E-01  0.1574E+02  0.1574E+02
     17.085  0.3115E-05  0.6370E-01  0.1574E+02  0.1574E+02
     17.169  0.6387E-11  0.6383E-03  0.1574E+02  0.1574E+02
     17.253  0.0000E+00  0.3684E-07  0.1574E+02  0.1574E+02
     17.338  0.0000E+00  0.8778E-14  0.1574E+02  0.1574E+02
     17.422  0.0000E+00  0.0000E+00  0.1574E+02  0.1574E+02
     17.506  0.1335E-12  0.0000E+00  0.1574E+02  0.1574E+02
     17.590  0.4198E-06  0.0000E+00  0.1574E+02  0.1574E+02
     17.675  0.5498E-02  0.4021E-13  0.1574E+02  0.1574E+02
     17.759  0.4283E+00  0.1834E-06  0.1578E+02  0.1574E+02
     17.843  0.5419E+00  0.3444E-02  0.1583E+02  0.1574E+02
     17.928  0.1268E-01  0.3692E+00  0.1583E+02  0.1577E+02
     18.012  0.1933E-05  0.5968E+00  0.1583E+02  0.1582E+02
     18.096  0.5177E-06  0.1893E-01  0.1583E+02  0.1583E+02
     18.181  0.4528E-02  0.4117E-05  0.1583E+02  0.1583E+02
     18.265  0.2622E+00  0.3876E-11  0.1585E+02  0.1583E+02
     18.349  0.7993E+00  0.1606E-11  0.1592E+02  0.1583E+02
     18.434  0.4117E+00  0.1816E-05  0.1595E+02  0.1583E+02
     18.518  0.4694E-02  0.8861E-02  0.1595E+02  0.1583E+02
     18.602  0.3174E-06  0.2991E+00  0.1595E+02  0.1585E+02
     18.687  0.4730E-04  0.6091E+00  0.1595E+02  0.1590E+02
     18.771  0.1586E-01  0.5748E+00  0.1595E+02  0.1595E+02
     18.855  0.6115E-01  0.7004E-01  0.1596E+02  0.1596E+02
     18.940  0.5304E-02  0.3011E-02  0.1596E+02  0.1596E+02
     19.024  0.3906E-05  0.1216E-05  0.1596E+02  0.1596E+02
     19.108  0.1321E-10  0.2186E-11  0.1596E+02  0.1596E+02
     19.193  0.0000E+00  0.0000E+00  0.1596E+02  0.1596E+02
     19.277  0.0000E+00  0.0000E+00  0.1596E+02  0.1596E+02
     19.361  0.0000E+00  0.0000E+00  0.1596E+02  0.1596E+02
     19.446  0.0000E+00  0.0000E+00  0.1596E+02  0.1596E+02
     19.530  0.0000E+00  0.0000E+00  0.1596E+02  0.1596E+02
     19.614  0.0000E+00  0.0000E+00  0.1596E+02  0.1596E+02
     19.698  0.9661E-12  0.2469E-15  0.1596E+02  0.1596E+02
     19.783  0.1291E-05  0.4274E-08  0.1596E+02  0.1596E+02
     19.867  0.7402E-02  0.2830E-03  0.1596E+02  0.1596E+02
     19.951  0.2816E+00  0.9504E-01  0.1598E+02  0.1597E+02
     20.036  0.2028E+00  0.3669E+00  0.1600E+02  0.1600E+02
     20.120  0.2308E-02  0.3187E-01  0.1600E+02  0.1600E+02
     20.204  0.1538E-06  0.2351E-04  0.1600E+02  0.1600E+02
     20.289  0.4246E-13  0.7971E-10  0.1600E+02  0.1600E+02
     20.373  0.0000E+00  0.0000E+00  0.1600E+02  0.1600E+02
     20.457  0.0000E+00  0.0000E+00  0.1600E+02  0.1600E+02
     20.542  0.0000E+00  0.0000E+00  0.1600E+02  0.1600E+02
     20.626  0.0000E+00  0.0000E+00  0.1600E+02  0.1600E+02
     20.710  0.0000E+00  0.0000E+00  0.1600E+02  0.1600E+02
     20.795  0.0000E+00  0.0000E+00  0.1600E+02  0.1600E+02
     20.879  0.0000E+00  0.0000E+00  0.1600E+02  0.1600E+02
     20.963  0.0000E+00  0.0000E+00  0.1600E+02  0.1600E+02
     21.048  0.0000E+00  0.0000E+00  0.1600E+02  0.1600E+02
     21.132  0.0000E+00  0.0000E+00  0.1600E+02  0.1600E+02
