    2    2    1    2
  0.2137190E+02  0.2470000E-09  0.2470000E-09  0.8090000E-09  0.5000000E-15
  1.000000000000000E-004
  CAR 
 Co-hcc                                  
     18     21     16
 
  0.0000000E+00  0.0000000E+00  0.0000000E+00  0.6944444E-02
      1         -3.014102       -2.782114   1.000000   1.000000
      2         -2.556260       -2.140406   1.000000   1.000000
      3         -0.283138        1.479671   1.000000   1.000000
      4          0.707807        2.180040   1.000000   1.000000
      5          0.707808        2.557448   1.000000   1.000000
      6          0.708689        2.557449   1.000000   1.000000
      7          0.708690        2.558685   1.000000   1.000000
      8          0.739569        2.558686   1.000000   1.000000
      9          1.409931        2.685474   1.000000   1.000000
     10          1.409932        3.847762   1.000000   0.000000
     11          1.412746        3.847764   1.000000   0.000000
     12          1.412747        3.851612   1.000000   0.000000
     13          2.143917        3.851613   1.000000   0.000000
     14          6.414582        6.691126   0.000000   0.000000
     15         10.850602       11.201070   0.000000   0.000000
     16         18.801584       18.791908   0.000000   0.000000
 
  0.1666667E+00 -0.1387779E-16  0.0000000E+00  0.4166667E-01
      1         -2.048747       -1.788177   1.000000   1.000000
      2         -1.659256       -1.152535   1.000000   1.000000
      3          0.008801        1.833683   1.000000   1.000000
      4          0.469837        1.985642   1.000000   1.000000
      5          0.478454        2.238961   1.000000   1.000000
      6          0.512973        2.255290   1.000000   1.000000
      7          0.789798        2.896719   1.000000   0.999705
      8          1.002296        2.946106   1.000000   0.979272
      9          1.117745        3.014795   1.000000   0.538291
     10          1.118594        3.016060   1.000000   0.524067
     11          1.329344        3.751392   1.000000   0.000000
     12          1.335394        3.759958   1.000000   0.000000
     13          3.731902        4.673738   0.000000   0.000000
     14          7.848776        8.384485   0.000000   0.000000
     15         11.475818       11.741537   0.000000   0.000000
     16         19.943845       19.982085   0.000000   0.000000
 
  0.3333333E+00 -0.2775558E-16  0.0000000E+00  0.4166667E-01
      1         -0.914310        0.170402   1.000000   1.000000
      2         -0.864981        0.394786   1.000000   1.000000
      3         -0.210979        1.624398   1.000000   1.000000
      4         -0.052171        1.968611   1.000000   1.000000
      5          0.628518        2.379787   1.000000   1.000000
      6          0.789358        2.751299   1.000000   1.000000
      7          1.171581        2.829002   1.000000   1.000000
      8          1.182019        3.523202   1.000000   0.000000
      9          1.763232        3.563509   1.000000   0.000000
     10          2.016251        3.578506   1.000000   0.000000
     11          2.016907        4.032385   1.000000   0.000000
     12          2.695288        4.033424   1.000000   0.000000
     13          6.706305        7.169325   0.000000   0.000000
     14         11.075602       11.677184   0.000000   0.000000
     15         13.013474       13.195797   0.000000   0.000000
     16         14.214891       14.707028   0.000000   0.000000
 
  0.5000000E+00 -0.5551115E-16  0.0000000E+00  0.2083333E-01
      1         -1.054093        0.341797   1.000000   1.000000
      2         -1.050919        0.356344   1.000000   1.000000
      3         -0.453821        1.482885   1.000000   1.000000
      4         -0.387918        1.595799   1.000000   1.000000
      5          0.944736        3.170669   1.000000   0.000008
      6          1.039038        3.311652   1.000000   0.000000
      7          1.093852        3.471231   1.000000   0.000000
      8          1.106430        3.489335   1.000000   0.000000
      9          2.515445        4.609486   1.000000   0.000000
     10          2.515647        4.609747   1.000000   0.000000
     11          5.227970        5.259743   0.000000   0.000000
     12          5.580021        5.637196   0.000000   0.000000
     13          9.217783       10.087770   0.000000   0.000000
     14         10.034254       10.735957   0.000000   0.000000
     15         10.450423       10.955410   0.000000   0.000000
     16         11.584890       11.848941   0.000000   0.000000
 
  0.1666667E+00  0.1666667E+00  0.0000000E+00  0.4166667E-01
      1         -0.538589       -0.041443   1.000000   1.000000
      2         -0.400106        0.483150   1.000000   1.000000
      3          0.004212        1.753936   1.000000   1.000000
      4          0.095651        1.760220   1.000000   1.000000
      5          0.099642        1.775692   1.000000   1.000000
      6          0.211285        2.265563   1.000000   1.000000
      7          0.524896        2.427567   1.000000   1.000000
      8          1.115355        3.210889   1.000000   0.000000
      9          1.123055        3.487390   1.000000   0.000000
     10          1.223974        3.499203   1.000000   0.000000
     11          2.179070        3.996565   1.000000   0.000000
     12          2.569466        4.131063   1.000000   0.000000
     13          5.808502        6.389400   0.000000   0.000000
     14         10.151672       10.775598   0.000000   0.000000
     15         12.781046       12.917260   0.000000   0.000000
     16         18.264123       18.592184   0.000000   0.000000
 
  0.3333333E+00  0.1666667E+00  0.0000000E+00  0.8333333E-01
      1         -0.484167        0.938277   1.000000   1.000000
      2         -0.477602        0.973031   1.000000   1.000000
      3         -0.252773        1.701477   1.000000   1.000000
      4         -0.164958        1.868428   1.000000   1.000000
      5          0.826420        2.649700   1.000000   1.000000
      6          0.833360        2.718966   1.000000   1.000000
      7          0.839834        3.112059   1.000000   0.003966
      8          0.881329        3.123986   1.000000   0.001385
      9          1.352825        3.143088   1.000000   0.000206
     10          1.516633        3.436883   1.000000   0.000000
     11          5.152492        6.101149   0.000000   0.000000
     12          5.968784        6.775078   0.000000   0.000000
     13          9.408796        9.759179   0.000000   0.000000
     14         11.322806       11.940797   0.000000   0.000000
     15         12.343248       12.985464   0.000000   0.000000
     16         13.411168       13.963028   0.000000   0.000000
 
  0.3333333E+00  0.3333333E+00  0.0000000E+00  0.1388889E-01
      1          0.162268        1.899654   1.000000   1.000000
      2          0.198864        1.930477   1.000000   1.000000
      3          0.198864        1.930481   1.000000   1.000000
      4          0.237682        1.968228   1.000000   1.000000
      5          0.433869        2.266104   1.000000   1.000000
      6          0.449270        2.327990   1.000000   1.000000
      7          0.449275        2.327990   1.000000   1.000000
      8          0.470199        2.394692   1.000000   1.000000
      9          0.973970        3.302714   1.000000   0.000000
     10          0.973973        3.302717   1.000000   0.000000
     11          9.677266       10.204974   0.000000   0.000000
     12          9.932392       10.502456   0.000000   0.000000
     13          9.932393       10.502459   0.000000   0.000000
     14         10.579438       11.197017   0.000000   0.000000
     15         12.038973       12.788102   0.000000   0.000000
     16         12.038974       12.788105   0.000000   0.000000
 
  0.0000000E+00  0.0000000E+00  0.2500000E+00  0.1388889E-01
      1         -2.949686       -2.701295   1.000000   1.000000
      2         -2.625235       -2.250438   1.000000   1.000000
      3         -0.217703        1.509965   1.000000   1.000000
      4          0.398250        1.860719   1.000000   1.000000
      5          0.707910        2.557600   1.000000   1.000000
      6          0.707912        2.557600   1.000000   1.000000
      7          0.708565        2.558519   1.000000   1.000000
      8          0.708567        2.558520   1.000000   1.000000
      9          1.410299        3.366106   1.000000   0.000000
     10          1.410300        3.848279   1.000000   0.000000
     11          1.412273        3.848280   1.000000   0.000000
     12          1.412273        3.850986   1.000000   0.000000
     13          2.813466        3.850988   1.000000   0.000000
     14          5.583455        5.923863   0.000000   0.000000
     15         11.950405       12.247796   0.000000   0.000000
     16         16.854569       16.990424   0.000000   0.000000
 
  0.1666667E+00 -0.1387779E-16  0.2500000E+00  0.8333333E-01
      1         -1.991150       -1.708310   1.000000   1.000000
      2         -1.714542       -1.261847   1.000000   1.000000
      3          0.059084        1.843865   1.000000   1.000000
      4          0.413349        1.941721   1.000000   1.000000
      5          0.478183        2.243940   1.000000   1.000000
      6          0.480023        2.254232   1.000000   1.000000
      7          0.797432        2.916280   1.000000   0.998028
      8          0.911588        2.945431   1.000000   0.980206
      9          1.117915        3.015046   1.000000   0.535468
     10          1.118560        3.015996   1.000000   0.524786
     11          1.330345        3.752781   1.000000   0.000000
     12          1.334571        3.758777   1.000000   0.000000
     13          4.233730        5.063420   0.000000   0.000000
     14          6.916365        7.476678   0.000000   0.000000
     15         12.694732       12.957473   0.000000   0.000000
     16         17.764557       17.938837   0.000000   0.000000
 
  0.3333333E+00 -0.2775558E-16  0.2500000E+00  0.8333333E-01
      1         -0.907210        0.202293   1.000000   1.000000
      2         -0.872361        0.360784   1.000000   1.000000
      3         -0.193673        1.657050   1.000000   1.000000
      4         -0.084167        1.878003   1.000000   1.000000
      5          0.667600        2.532975   1.000000   1.000000
      6          0.777228        2.753524   1.000000   1.000000
      7          1.173080        2.835782   1.000000   1.000000
      8          1.180517        3.329995   1.000000   0.000000
      9          1.856978        3.565675   1.000000   0.000000
     10          2.016376        3.576336   1.000000   0.000000
     11          2.016848        4.032584   1.000000   0.000000
     12          2.500296        4.033329   1.000000   0.000000
     13          7.174318        7.635254   0.000000   0.000000
     14          9.904280       10.379135   0.000000   0.000000
     15         13.918814       14.380274   0.000000   0.000000
     16         14.394843       14.868637   0.000000   0.000000
 
  0.5000000E+00 -0.5551115E-16  0.2500000E+00  0.4166667E-01
      1         -1.053859        0.343559   1.000000   1.000000
      2         -1.051597        0.353857   1.000000   1.000000
      3         -0.445473        1.496948   1.000000   1.000000
      4         -0.398872        1.576521   1.000000   1.000000
      5          0.961450        3.200337   1.000000   0.000000
      6          1.028393        3.302399   1.000000   0.000000
      7          1.095543        3.473679   1.000000   0.000000
      8          1.104450        3.486508   1.000000   0.000000
      9          2.515436        4.609473   1.000000   0.000000
     10          2.515573        4.609657   1.000000   0.000000
     11          5.270275        5.294181   0.000000   0.000000
     12          5.518926        5.562434   0.000000   0.000000
     13          9.220629       10.079229   0.000000   0.000000
     14          9.628749       10.367261   0.000000   0.000000
     15         11.078579       11.545149   0.000000   0.000000
     16         11.779659       12.050438   0.000000   0.000000
 
  0.1666667E+00  0.1666667E+00  0.2500000E+00  0.8333333E-01
      1         -0.516822        0.025186   1.000000   1.000000
      2         -0.419145        0.393083   1.000000   1.000000
      3          0.022759        1.754783   1.000000   1.000000
      4          0.096157        1.758875   1.000000   1.000000
      5          0.099122        1.832690   1.000000   1.000000
      6          0.154859        2.132739   1.000000   1.000000
      7          0.646130        2.589993   1.000000   1.000000
      8          1.114950        3.093995   1.000000   0.016017
      9          1.121974        3.489157   1.000000   0.000000
     10          1.131675        3.497497   1.000000   0.000000
     11          2.203210        4.002515   1.000000   0.000000
     12          2.453964        4.081438   1.000000   0.000000
     13          6.290197        6.859706   0.000000   0.000000
     14          9.040622        9.579549   0.000000   0.000000
     15         14.167495       14.399885   0.000000   0.000000
     16         18.341978       18.692902   0.000000   0.000000
 
  0.3333333E+00  0.1666667E+00  0.2500000E+00  0.1666667E+00
      1         -0.483555        0.942955   1.000000   1.000000
      2         -0.478994        0.967539   1.000000   1.000000
      3         -0.241260        1.721462   1.000000   1.000000
      4         -0.179625        1.837605   1.000000   1.000000
      5          0.822533        2.670227   1.000000   1.000000
      6          0.834830        2.716170   1.000000   1.000000
      7          0.850259        3.116747   1.000000   0.002656
      8          0.879801        3.137668   1.000000   0.000363
      9          1.376349        3.167357   1.000000   0.000012
     10          1.492779        3.390509   1.000000   0.000000
     11          5.235671        6.161098   0.000000   0.000000
     12          5.794249        6.615395   0.000000   0.000000
     13          9.840043       10.201021   0.000000   0.000000
     14         11.363309       11.946925   0.000000   0.000000
     15         12.100944       12.684729   0.000000   0.000000
     16         12.670341       13.211255   0.000000   0.000000
 
  0.3333333E+00  0.3333333E+00  0.2500000E+00  0.2777778E-01
      1          0.172056        1.907606   1.000000   1.000000
      2          0.197435        1.931553   1.000000   1.000000
      3          0.197435        1.931558   1.000000   1.000000
      4          0.225000        1.955180   1.000000   1.000000
      5          0.440870        2.287861   1.000000   1.000000
      6          0.450452        2.325296   1.000000   1.000000
      7          0.450456        2.325296   1.000000   1.000000
      8          0.466131        2.377920   1.000000   1.000000
      9          0.974649        3.305310   1.000000   0.000000
     10          0.974652        3.305313   1.000000   0.000000
     11          9.781312       10.315831   0.000000   0.000000
     12          9.957404       10.520113   0.000000   0.000000
     13          9.957406       10.520116   0.000000   0.000000
     14         10.407229       10.999548   0.000000   0.000000
     15         11.792378       12.483926   0.000000   0.000000
     16         11.792379       12.483928   0.000000   0.000000
 
  0.0000000E+00  0.0000000E+00  0.5000000E+00  0.6944444E-02
      1         -2.789870       -2.490150   1.000000   1.000000
      2         -2.789870       -2.490149   1.000000   1.000000
      3         -0.000644        1.618340   1.000000   1.000000
      4         -0.000642        1.618342   1.000000   1.000000
      5          0.708117        2.557892   1.000000   1.000000
      6          0.708118        2.557893   1.000000   1.000000
      7          0.708122        2.557897   1.000000   1.000000
      8          0.708123        2.557898   1.000000   1.000000
      9          1.411180        3.849486   1.000000   0.000000
     10          1.411180        3.849486   1.000000   0.000000
     11          1.411181        3.849487   1.000000   0.000000
     12          1.411181        3.849487   1.000000   0.000000
     13          4.125105        4.570734   0.000000   0.000000
     14          4.125105        4.570735   0.000000   0.000000
     15         14.215041       14.438153   0.000000   0.000000
     16         14.215042       14.438153   0.000000   0.000000
 
  0.1666667E+00 -0.1387779E-16  0.5000000E+00  0.4166667E-01
      1         -1.851791       -1.499446   1.000000   1.000000
      2         -1.851790       -1.499446   1.000000   1.000000
      3          0.211713        1.878689   1.000000   1.000000
      4          0.211715        1.878691   1.000000   1.000000
      5          0.477831        2.250328   1.000000   1.000000
      6          0.477835        2.250332   1.000000   1.000000
      7          0.827388        2.938041   1.000000   0.988306
      8          0.827388        2.938042   1.000000   0.988306
      9          1.118217        3.015503   1.000000   0.530334
     10          1.118222        3.015508   1.000000   0.530280
     11          1.332441        3.755762   1.000000   0.000000
     12          1.332441        3.755762   1.000000   0.000000
     13          5.434812        6.098623   0.000000   0.000000
     14          5.434812        6.098623   0.000000   0.000000
     15         15.050544       15.279749   0.000000   0.000000
     16         15.050544       15.279749   0.000000   0.000000
 
  0.3333333E+00 -0.2775558E-16  0.5000000E+00  0.4166667E-01
      1         -0.889856        0.280571   1.000000   1.000000
      2         -0.889853        0.280573   1.000000   1.000000
      3         -0.145601        1.747995   1.000000   1.000000
      4         -0.145601        1.747995   1.000000   1.000000
      5          0.735275        2.731775   1.000000   1.000000
      6          0.735278        2.731777   1.000000   1.000000
      7          1.176844        2.974334   1.000000   0.892613
      8          1.176844        2.974336   1.000000   0.892600
      9          2.016661        3.571046   1.000000   0.000000
     10          2.016665        3.571047   1.000000   0.000000
     11          2.132343        4.033033   1.000000   0.000000
     12          2.132344        4.033038   1.000000   0.000000
     13          8.352200        8.807899   0.000000   0.000000
     14          8.352200        8.807899   0.000000   0.000000
     15         14.382035       14.933059   0.000000   0.000000
     16         14.382036       14.933059   0.000000   0.000000
 
  0.5000000E+00 -0.5551115E-16  0.5000000E+00  0.2083333E-01
      1         -1.052906        0.348399   1.000000   1.000000
      2         -1.052902        0.348403   1.000000   1.000000
      3         -0.423334        1.534322   1.000000   1.000000
      4         -0.423334        1.534322   1.000000   1.000000
      5          0.997980        3.261513   1.000000   0.000000
      6          0.997983        3.261516   1.000000   0.000000
      7          1.100064        3.480157   1.000000   0.000000
      8          1.100064        3.480157   1.000000   0.000000
      9          2.515492        4.609546   1.000000   0.000000
     10          2.515497        4.609551   1.000000   0.000000
     11          5.385233        5.408350   0.000000   0.000000
     12          5.385234        5.408351   0.000000   0.000000
     13          9.321248       10.138214   0.000000   0.000000
     14          9.321248       10.138214   0.000000   0.000000
     15         11.790566       12.140223   0.000000   0.000000
     16         11.790566       12.140223   0.000000   0.000000
 
  0.1666667E+00  0.1666667E+00  0.5000000E+00  0.4166667E-01
      1         -0.466587        0.197994   1.000000   1.000000
      2         -0.466585        0.197995   1.000000   1.000000
      3          0.075262        1.756866   1.000000   1.000000
      4          0.075262        1.756870   1.000000   1.000000
      5          0.098187        1.966688   1.000000   1.000000
      6          0.098191        1.966689   1.000000   1.000000
      7          0.894695        2.842699   1.000000   1.000000
      8          0.894697        2.842701   1.000000   1.000000
      9          1.119245        3.493245   1.000000   0.000000
     10          1.119246        3.493245   1.000000   0.000000
     11          2.289568        4.026082   1.000000   0.000000
     12          2.289572        4.026087   1.000000   0.000000
     13          7.486349        8.028259   0.000000   0.000000
     14          7.486349        8.028259   0.000000   0.000000
     15         16.526803       16.807021   0.000000   0.000000
     16         16.526804       16.807021   0.000000   0.000000
 
  0.3333333E+00  0.1666667E+00  0.5000000E+00  0.8333333E-01
      1         -0.481685        0.954800   1.000000   1.000000
      2         -0.481681        0.954804   1.000000   1.000000
      3         -0.212043        1.774393   1.000000   1.000000
      4         -0.212043        1.774394   1.000000   1.000000
      5          0.826888        2.701274   1.000000   1.000000
      6          0.826888        2.701277   1.000000   1.000000
      7          0.869928        3.127522   1.000000   0.000993
      8          0.869931        3.127522   1.000000   0.000993
      9          1.434451        3.277141   1.000000   0.000000
     10          1.434455        3.277144   1.000000   0.000000
     11          5.473901        6.344264   0.000000   0.000000
     12          5.473903        6.344267   0.000000   0.000000
     13         10.837909       11.232808   0.000000   0.000000
     14         10.837909       11.232808   0.000000   0.000000
     15         11.961813       12.580982   0.000000   0.000000
     16         11.961813       12.580983   0.000000   0.000000
 
  0.3333333E+00  0.3333333E+00  0.5000000E+00  0.1388889E-01
      1          0.196033        1.928978   1.000000   1.000000
      2          0.196033        1.928982   1.000000   1.000000
      3          0.197162        1.932590   1.000000   1.000000
      4          0.197162        1.932595   1.000000   1.000000
      5          0.451579        2.322615   1.000000   1.000000
      6          0.451583        2.322615   1.000000   1.000000
      7          0.454849        2.335200   1.000000   1.000000
      8          0.454853        2.335200   1.000000   1.000000
      9          0.975345        3.307916   1.000000   0.000000
     10          0.975348        3.307919   1.000000   0.000000
     11          9.984731       10.539140   0.000000   0.000000
     12          9.984732       10.539143   0.000000   0.000000
     13         10.062708       10.618711   0.000000   0.000000
     14         10.062709       10.618712   0.000000   0.000000
     15         11.608474       12.285022   0.000000   0.000000
     16         11.608474       12.285023   0.000000   0.000000
