<?xml version="1.0" encoding="ISO-8859-1"?>
<modeling>
 <generator>
  <i name="program" type="string">vasp </i>
  <i name="version" type="string">6.3.2  </i>
  <i name="subversion" type="string">27Jun22 (build Aug 12 2022 00:53:59) complex                          parallel </i>
  <i name="platform" type="string">tv2STD </i>
  <i name="date" type="string">2024 12 03 </i>
  <i name="time" type="string">01:29:03 </i>
 </generator>
 <incar>
  <i type="string" name="SYSTEM">Co-hcc</i>
  <i type="int" name="ISTART">     0</i>
  <i type="string" name="PREC">Accurate      normal | accurate</i>
  <i type="string" name="ALGO">Normal     Normal, Fast, Very_Fast</i>
  <i type="logical" name="ADDGRID"> F  </i>
  <i type="int" name="ISPIN">     2</i>
  <i type="int" name="ICHARG">     2</i>
  <i type="int" name="INIWAV">     1</i>
  <i type="int" name="NELM">   100</i>
  <i type="int" name="IBRION">     2</i>
  <i name="EDIFF">      0.00000100</i>
  <i name="EDIFFG">     -0.02000000</i>
  <i type="int" name="NSW">   100</i>
  <i type="int" name="ISIF">     2</i>
  <i type="int" name="ISYM">     1</i>
  <i name="ENCUT">    425.00000000</i>
  <v name="MAGMOM">      3.00000000      3.00000000</v>
  <i type="logical" name="LREAL"> F  </i>
  <i type="int" name="ISMEAR">     0</i>
  <i name="SIGMA">      0.05000000</i>
  <i type="int" name="NWRITE">     2</i>
  <i type="logical" name="LWAVE"> F  </i>
  <i type="logical" name="LCHARG"> F  </i>
  <i type="int" name="LORBIT">    11</i>
 </incar>
 <primitive_cell>
  <structure name="primitive_cell" >
   <crystal>
    <varray name="basis" >
     <v>       1.24613780      -2.15837399       0.00000000 </v>
     <v>       1.24613780       2.15837399       0.00000000 </v>
     <v>       0.00000000       0.00000000       4.02015843 </v>
    </varray>
    <i name="volume">     21.62548890 </i>
    <varray name="rec_basis" >
     <v>       0.40123973      -0.23165587       0.00000000 </v>
     <v>       0.40123973       0.23165587       0.00000000 </v>
     <v>       0.00000000       0.00000000       0.24874642 </v>
    </varray>
   </crystal>
   <varray name="positions" >
    <v>       0.33333333       0.66666667       0.25000000 </v>
    <v>       0.66666667       0.33333333       0.75000000 </v>
   </varray>
  </structure>
  <varray name="primitive_index" >
   <v type="int" >        1 </v>
   <v type="int" >        2 </v>
  </varray>
 </primitive_cell>
 <kpoints>
  <generation param="Gamma">
   <v type="int" name="divisions">      12       12        8 </v>
   <v name="usershift">      0.00000000       0.00000000       0.00000000 </v>
   <v name="genvec1">      0.08333333       0.00000000       0.00000000 </v>
   <v name="genvec2">      0.00000000       0.08333333       0.00000000 </v>
   <v name="genvec3">      0.00000000       0.00000000       0.12500000 </v>
   <v name="shift">      0.00000000       0.00000000       0.00000000 </v>
  </generation>
  <varray name="kpointlist" >
   <v>       0.00000000       0.00000000       0.00000000 </v>
   <v>       0.08333333       0.00000000       0.00000000 </v>
   <v>       0.16666667       0.00000000       0.00000000 </v>
   <v>       0.25000000      -0.00000000       0.00000000 </v>
   <v>       0.33333333      -0.00000000       0.00000000 </v>
   <v>       0.41666667       0.00000000       0.00000000 </v>
   <v>       0.50000000      -0.00000000       0.00000000 </v>
   <v>       0.08333333       0.08333333       0.00000000 </v>
   <v>       0.16666667       0.08333333       0.00000000 </v>
   <v>       0.25000000       0.08333333       0.00000000 </v>
   <v>       0.33333333       0.08333333       0.00000000 </v>
   <v>       0.41666667       0.08333333       0.00000000 </v>
   <v>       0.16666667       0.16666667       0.00000000 </v>
   <v>       0.25000000       0.16666667       0.00000000 </v>
   <v>       0.33333333       0.16666667       0.00000000 </v>
   <v>       0.41666667       0.16666667       0.00000000 </v>
   <v>       0.25000000       0.25000000       0.00000000 </v>
   <v>       0.33333333       0.25000000       0.00000000 </v>
   <v>       0.33333333       0.33333333       0.00000000 </v>
   <v>       0.00000000       0.00000000       0.12500000 </v>
   <v>       0.08333333       0.00000000       0.12500000 </v>
   <v>       0.16666667       0.00000000       0.12500000 </v>
   <v>       0.25000000      -0.00000000       0.12500000 </v>
   <v>       0.33333333      -0.00000000       0.12500000 </v>
   <v>       0.41666667       0.00000000       0.12500000 </v>
   <v>       0.50000000      -0.00000000       0.12500000 </v>
   <v>       0.08333333       0.08333333       0.12500000 </v>
   <v>       0.16666667       0.08333333       0.12500000 </v>
   <v>       0.25000000       0.08333333       0.12500000 </v>
   <v>       0.33333333       0.08333333       0.12500000 </v>
   <v>       0.41666667       0.08333333       0.12500000 </v>
   <v>       0.16666667       0.16666667       0.12500000 </v>
   <v>       0.25000000       0.16666667       0.12500000 </v>
   <v>       0.33333333       0.16666667       0.12500000 </v>
   <v>       0.41666667       0.16666667       0.12500000 </v>
   <v>       0.25000000       0.25000000       0.12500000 </v>
   <v>       0.33333333       0.25000000       0.12500000 </v>
   <v>       0.33333333       0.33333333       0.12500000 </v>
   <v>       0.00000000       0.00000000       0.25000000 </v>
   <v>       0.08333333       0.00000000       0.25000000 </v>
   <v>       0.16666667       0.00000000       0.25000000 </v>
   <v>       0.25000000      -0.00000000       0.25000000 </v>
   <v>       0.33333333      -0.00000000       0.25000000 </v>
   <v>       0.41666667       0.00000000       0.25000000 </v>
   <v>       0.50000000      -0.00000000       0.25000000 </v>
   <v>       0.08333333       0.08333333       0.25000000 </v>
   <v>       0.16666667       0.08333333       0.25000000 </v>
   <v>       0.25000000       0.08333333       0.25000000 </v>
   <v>       0.33333333       0.08333333       0.25000000 </v>
   <v>       0.41666667       0.08333333       0.25000000 </v>
   <v>       0.16666667       0.16666667       0.25000000 </v>
   <v>       0.25000000       0.16666667       0.25000000 </v>
   <v>       0.33333333       0.16666667       0.25000000 </v>
   <v>       0.41666667       0.16666667       0.25000000 </v>
   <v>       0.25000000       0.25000000       0.25000000 </v>
   <v>       0.33333333       0.25000000       0.25000000 </v>
   <v>       0.33333333       0.33333333       0.25000000 </v>
   <v>       0.00000000       0.00000000       0.37500000 </v>
   <v>       0.08333333       0.00000000       0.37500000 </v>
   <v>       0.16666667       0.00000000       0.37500000 </v>
   <v>       0.25000000      -0.00000000       0.37500000 </v>
   <v>       0.33333333      -0.00000000       0.37500000 </v>
   <v>       0.41666667       0.00000000       0.37500000 </v>
   <v>       0.50000000      -0.00000000       0.37500000 </v>
   <v>       0.08333333       0.08333333       0.37500000 </v>
   <v>       0.16666667       0.08333333       0.37500000 </v>
   <v>       0.25000000       0.08333333       0.37500000 </v>
   <v>       0.33333333       0.08333333       0.37500000 </v>
   <v>       0.41666667       0.08333333       0.37500000 </v>
   <v>       0.16666667       0.16666667       0.37500000 </v>
   <v>       0.25000000       0.16666667       0.37500000 </v>
   <v>       0.33333333       0.16666667       0.37500000 </v>
   <v>       0.41666667       0.16666667       0.37500000 </v>
   <v>       0.25000000       0.25000000       0.37500000 </v>
   <v>       0.33333333       0.25000000       0.37500000 </v>
   <v>       0.33333333       0.33333333       0.37500000 </v>
   <v>       0.00000000       0.00000000       0.50000000 </v>
   <v>       0.08333333       0.00000000       0.50000000 </v>
   <v>       0.16666667       0.00000000       0.50000000 </v>
   <v>       0.25000000      -0.00000000       0.50000000 </v>
   <v>       0.33333333      -0.00000000       0.50000000 </v>
   <v>       0.41666667       0.00000000       0.50000000 </v>
   <v>       0.50000000      -0.00000000       0.50000000 </v>
   <v>       0.08333333       0.08333333       0.50000000 </v>
   <v>       0.16666667       0.08333333       0.50000000 </v>
   <v>       0.25000000       0.08333333       0.50000000 </v>
   <v>       0.33333333       0.08333333       0.50000000 </v>
   <v>       0.41666667       0.08333333       0.50000000 </v>
   <v>       0.16666667       0.16666667       0.50000000 </v>
   <v>       0.25000000       0.16666667       0.50000000 </v>
   <v>       0.33333333       0.16666667       0.50000000 </v>
   <v>       0.41666667       0.16666667       0.50000000 </v>
   <v>       0.25000000       0.25000000       0.50000000 </v>
   <v>       0.33333333       0.25000000       0.50000000 </v>
   <v>       0.33333333       0.33333333       0.50000000 </v>
  </varray>
  <varray name="weights" >
   <v>       0.00086806 </v>
   <v>       0.00520833 </v>
   <v>       0.00520833 </v>
   <v>       0.00520833 </v>
   <v>       0.00520833 </v>
   <v>       0.00520833 </v>
   <v>       0.00260417 </v>
   <v>       0.00520833 </v>
   <v>       0.01041667 </v>
   <v>       0.01041667 </v>
   <v>       0.01041667 </v>
   <v>       0.01041667 </v>
   <v>       0.00520833 </v>
   <v>       0.01041667 </v>
   <v>       0.01041667 </v>
   <v>       0.00520833 </v>
   <v>       0.00520833 </v>
   <v>       0.01041667 </v>
   <v>       0.00173611 </v>
   <v>       0.00173611 </v>
   <v>       0.01041667 </v>
   <v>       0.01041667 </v>
   <v>       0.01041667 </v>
   <v>       0.01041667 </v>
   <v>       0.01041667 </v>
   <v>       0.00520833 </v>
   <v>       0.01041667 </v>
   <v>       0.02083333 </v>
   <v>       0.02083333 </v>
   <v>       0.02083333 </v>
   <v>       0.02083333 </v>
   <v>       0.01041667 </v>
   <v>       0.02083333 </v>
   <v>       0.02083333 </v>
   <v>       0.01041667 </v>
   <v>       0.01041667 </v>
   <v>       0.02083333 </v>
   <v>       0.00347222 </v>
   <v>       0.00173611 </v>
   <v>       0.01041667 </v>
   <v>       0.01041667 </v>
   <v>       0.01041667 </v>
   <v>       0.01041667 </v>
   <v>       0.01041667 </v>
   <v>       0.00520833 </v>
   <v>       0.01041667 </v>
   <v>       0.02083333 </v>
   <v>       0.02083333 </v>
   <v>       0.02083333 </v>
   <v>       0.02083333 </v>
   <v>       0.01041667 </v>
   <v>       0.02083333 </v>
   <v>       0.02083333 </v>
   <v>       0.01041667 </v>
   <v>       0.01041667 </v>
   <v>       0.02083333 </v>
   <v>       0.00347222 </v>
   <v>       0.00173611 </v>
   <v>       0.01041667 </v>
   <v>       0.01041667 </v>
   <v>       0.01041667 </v>
   <v>       0.01041667 </v>
   <v>       0.01041667 </v>
   <v>       0.00520833 </v>
   <v>       0.01041667 </v>
   <v>       0.02083333 </v>
   <v>       0.02083333 </v>
   <v>       0.02083333 </v>
   <v>       0.02083333 </v>
   <v>       0.01041667 </v>
   <v>       0.02083333 </v>
   <v>       0.02083333 </v>
   <v>       0.01041667 </v>
   <v>       0.01041667 </v>
   <v>       0.02083333 </v>
   <v>       0.00347222 </v>
   <v>       0.00086806 </v>
   <v>       0.00520833 </v>
   <v>       0.00520833 </v>
   <v>       0.00520833 </v>
   <v>       0.00520833 </v>
   <v>       0.00520833 </v>
   <v>       0.00260417 </v>
   <v>       0.00520833 </v>
   <v>       0.01041667 </v>
   <v>       0.01041667 </v>
   <v>       0.01041667 </v>
   <v>       0.01041667 </v>
   <v>       0.00520833 </v>
   <v>       0.01041667 </v>
   <v>       0.01041667 </v>
   <v>       0.00520833 </v>
   <v>       0.00520833 </v>
   <v>       0.01041667 </v>
   <v>       0.00173611 </v>
  </varray>
 </kpoints>
 <parameters>
  <separator name="general" >
   <i type="string" name="SYSTEM">Co-hcc</i>
   <i type="logical" name="LCOMPAT"> F  </i>
  </separator>
  <separator name="electronic" >
   <i type="string" name="PREC">accura</i>
   <i name="ENMAX">    425.00000000</i>
   <i name="ENAUG">    477.81800000</i>
   <i name="EDIFF">      0.00000100</i>
   <i type="int" name="IALGO">    38</i>
   <i type="int" name="IWAVPR">    11</i>
   <i type="int" name="NBANDS">    24</i>
   <i type="int" name="NBANDSLOW">    -1</i>
   <i type="int" name="NBANDSHIGH">    -1</i>
   <i name="NELECT">     18.00000000</i>
   <i type="int" name="TURBO">     0</i>
   <i type="int" name="IRESTART">     0</i>
   <i type="int" name="NREBOOT">     0</i>
   <i type="int" name="NMIN">     0</i>
   <i name="EREF">      0.00000000</i>
   <separator name="electronic smearing" >
    <i type="int" name="ISMEAR">     0</i>
    <i name="SIGMA">      0.05000000</i>
    <i name="KSPACING">      0.50000000</i>
    <i type="logical" name="KGAMMA"> T  </i>
    <i type="logical" name="KBLOWUP"> T  </i>
   </separator>
   <separator name="electronic projectors" >
    <i type="logical" name="LREAL"> F  </i>
    <v name="ROPT">      0.00000000</v>
    <i type="int" name="LMAXPAW">  -100</i>
    <i type="int" name="LMAXMIX">     2</i>
    <i type="logical" name="NLSPLINE"> F  </i>
   </separator>
   <separator name="electronic startup" >
    <i type="int" name="ISTART">     0</i>
    <i type="int" name="ICHARG">     2</i>
    <i type="int" name="INIWAV">     1</i>
   </separator>
   <separator name="electronic spin" >
    <i type="int" name="ISPIN">     2</i>
    <i type="logical" name="LNONCOLLINEAR"> F  </i>
    <v name="MAGMOM">      3.00000000      3.00000000</v>
    <i name="NUPDOWN">     -1.00000000</i>
    <i type="logical" name="LSORBIT"> F  </i>
    <v name="SAXIS">      0.00000000      0.00000000      1.00000000</v>
    <i type="logical" name="LSPIRAL"> F  </i>
    <v name="QSPIRAL">      0.00000000      0.00000000      0.00000000</v>
    <i type="logical" name="LZEROZ"> F  </i>
   </separator>
   <separator name="electronic exchange-correlation" >
    <i type="logical" name="LASPH"> F  </i>
    <i type="logical" name="LMETAGGA"> F  </i>
   </separator>
   <separator name="electronic convergence" >
    <i type="int" name="NELM">   100</i>
    <i type="int" name="NELMDL">    -5</i>
    <i type="int" name="NELMIN">     2</i>
    <i name="ENINI">    425.00000000</i>
    <separator name="electronic convergence detail" >
     <i type="logical" name="LDIAG"> T  </i>
     <i type="logical" name="LSUBROT"> F  </i>
     <i name="WEIMIN">      0.00100000</i>
     <i name="EBREAK">      0.00000001</i>
     <i name="DEPER">      0.30000000</i>
     <i type="int" name="NRMM">     4</i>
     <i name="TIME">      0.40000000</i>
    </separator>
   </separator>
   <separator name="electronic mixer" >
    <i name="AMIX">      0.40000000</i>
    <i name="BMIX">      1.00000000</i>
    <i name="AMIN">      0.10000000</i>
    <i name="AMIX_MAG">      1.60000000</i>
    <i name="BMIX_MAG">      1.00000000</i>
    <separator name="electronic mixer details" >
     <i type="int" name="IMIX">     4</i>
     <i type="logical" name="MIXFIRST"> F  </i>
     <i type="int" name="MAXMIX">   -45</i>
     <i name="WC">    100.00000000</i>
     <i type="int" name="INIMIX">     1</i>
     <i type="int" name="MIXPRE">     1</i>
     <i type="int" name="MREMOVE">     5</i>
    </separator>
   </separator>
   <separator name="electronic dipolcorrection" >
    <i type="logical" name="LDIPOL"> F  </i>
    <i type="logical" name="LMONO"> F  </i>
    <i type="int" name="IDIPOL">     0</i>
    <i name="EPSILON">      1.00000000</i>
    <v name="DIPOL">   -100.00000000   -100.00000000   -100.00000000</v>
    <i name="EFIELD">      0.00000000</i>
   </separator>
  </separator>
  <separator name="grids" >
   <i type="int" name="NGX">    18</i>
   <i type="int" name="NGY">    18</i>
   <i type="int" name="NGZ">    28</i>
   <i type="int" name="NGXF">    36</i>
   <i type="int" name="NGYF">    36</i>
   <i type="int" name="NGZF">    56</i>
   <i type="logical" name="ADDGRID"> F  </i>
  </separator>
  <separator name="ionic" >
   <i type="int" name="NSW">   100</i>
   <i type="int" name="IBRION">     2</i>
   <i type="int" name="MDALGO">     0</i>
   <i type="int" name="ISIF">     2</i>
   <i name="PSTRESS">      0.00000000</i>
   <i name="EDIFFG">     -0.02000000</i>
   <i type="int" name="NFREE">     1</i>
   <i name="POTIM">      0.50000000</i>
   <i name="SMASS">     -3.00000000</i>
   <i name="SCALEE">      1.00000000</i>
  </separator>
  <separator name="ionic md" >
   <i name="TEBEG">      0.00010000</i>
   <i name="TEEND">      0.00010000</i>
   <i type="int" name="NBLOCK">     1</i>
   <i type="int" name="KBLOCK">   100</i>
   <i type="int" name="NPACO">   256</i>
   <i name="APACO">     10.00000000</i>
  </separator>
  <separator name="symmetry" >
   <i type="int" name="ISYM">     1</i>
   <i name="SYMPREC">      0.00001000</i>
  </separator>
  <separator name="dos" >
   <i type="int" name="LORBIT">    11</i>
   <v name="RWIGS">     -1.00000000</v>
   <i type="int" name="NEDOS">   301</i>
   <i name="EMIN">     10.00000000</i>
   <i name="EMAX">    -10.00000000</i>
   <i name="EFERMI">      0.00000000</i>
  </separator>
  <separator name="writing" >
   <i type="int" name="NWRITE">     2</i>
   <i type="logical" name="LWAVE"> F  </i>
   <i type="logical" name="LDOWNSAMPLE"> F  </i>
   <i type="logical" name="LCHARG"> F  </i>
   <i type="logical" name="LPARD"> F  </i>
   <i type="logical" name="LVTOT"> F  </i>
   <i type="logical" name="LVHAR"> F  </i>
   <i type="logical" name="LELF"> F  </i>
   <i type="logical" name="LOPTICS"> F  </i>
   <v name="STM">      0.00000000      0.00000000      0.00000000      0.00000000      0.00000000      0.00000000      0.00000000</v>
  </separator>
  <separator name="performance" >
   <i type="int" name="NPAR">    24</i>
   <i type="int" name="NSIM">     4</i>
   <i type="int" name="NBLK">    -1</i>
   <i type="logical" name="LPLANE"> T  </i>
   <i type="logical" name="LSCALAPACK"> T  </i>
   <i type="logical" name="LSCAAWARE"> T  </i>
   <i type="logical" name="LSCALU"> F  </i>
   <i type="logical" name="LASYNC"> F  </i>
   <i type="logical" name="LORBITALREAL"> F  </i>
  </separator>
  <separator name="miscellaneous" >
   <i type="int" name="IDIOT">     3</i>
   <i type="int" name="PHON_NSTRUCT">    -1</i>
   <i type="logical" name="LMUSIC"> F  </i>
   <v name="POMASS">     58.93300000</v>
   <v name="DARWINR">      0.00000000</v>
   <v name="DARWINV">      1.00000000</v>
   <i type="logical" name="LCORR"> T  </i>
  </separator>
  <i type="logical" name="GGA_COMPAT"> T  </i>
  <i type="logical" name="LBERRY"> F  </i>
  <i type="int" name="ICORELEVEL">     0</i>
  <i type="logical" name="LDAU"> F  </i>
  <i type="int" name="I_CONSTRAINED_M">     0</i>
  <separator name="electronic exchange-correlation" >
   <i type="string" name="GGA">--</i>
   <i type="int" name="VOSKOWN">     0</i>
   <i type="logical" name="LHFCALC"> F  </i>
   <i type="string" name="PRECFOCK"></i>
   <i type="logical" name="LSYMGRAD"> F  </i>
   <i type="logical" name="LHFONE"> F  </i>
   <i type="logical" name="LRHFCALC"> F  </i>
   <i type="logical" name="LTHOMAS"> F  </i>
   <i type="logical" name="LMODELHF"> F  </i>
   <i type="logical" name="LFOCKACE"> F  </i>
   <i name="ENCUT4O">     -1.00000000</i>
   <i type="int" name="EXXOEP">     0</i>
   <i type="int" name="FOURORBIT">     0</i>
   <i name="AEXX">      0.00000000</i>
   <i name="HFALPHA">      0.00000000</i>
   <i name="MCALPHA">      0.00000000</i>
   <i name="ALDAX">      1.00000000</i>
   <i name="AGGAX">      1.00000000</i>
   <i name="ALDAC">      1.00000000</i>
   <i name="AGGAC">      1.00000000</i>
   <i type="int" name="NKREDX">     1</i>
   <i type="int" name="NKREDY">     1</i>
   <i type="int" name="NKREDZ">     1</i>
   <i type="logical" name="SHIFTRED"> F  </i>
   <i type="logical" name="ODDONLY"> F  </i>
   <i type="logical" name="EVENONLY"> F  </i>
   <i type="int" name="LMAXFOCK">     0</i>
   <i type="int" name="NMAXFOCKAE">     0</i>
   <i type="logical" name="LFOCKAEDFT"> F  </i>
   <i name="HFSCREEN">      0.00000000</i>
   <i name="HFSCREENC">      0.00000000</i>
   <i type="int" name="NBANDSGWLOW">     0</i>
  </separator>
  <separator name="vdW DFT" >
   <i type="logical" name="LUSE_VDW"> F  </i>
   <i name="Zab_VDW">     -0.84910000</i>
   <i name="PARAM1">      0.12340000</i>
   <i name="PARAM2">      1.00000000</i>
   <i name="PARAM3">      0.00000000</i>
  </separator>
  <separator name="model GW" >
   <i type="int" name="MODEL_GW">     0</i>
   <i name="MODEL_EPS0">      6.48764667</i>
   <i name="MODEL_ALPHA">      1.00000000</i>
  </separator>
  <separator name="linear response parameters" >
   <i type="logical" name="LEPSILON"> F  </i>
   <i type="logical" name="LRPA"> F  </i>
   <i type="logical" name="LNABLA"> F  </i>
   <i type="logical" name="LVEL"> F  </i>
   <i name="CSHIFT">      0.10000000</i>
   <i name="OMEGAMAX">     -1.00000000</i>
   <i name="DEG_THRESHOLD">      0.00200000</i>
   <i name="RTIME">     -0.10000000</i>
   <i name="WPLASMAI">      0.00000000</i>
   <v name="DFIELD">      0.00000000      0.00000000      0.00000000</v>
   <v name="WPLASMA">      0.00000000      0.00000000      0.00000000      0.00000000      0.00000000      0.00000000      0.00000000      0.00000000      0.00000000</v>
  </separator>
  <separator name="orbital magnetization" >
   <i type="logical" name="NUCIND"> F  </i>
   <v name="MAGPOS">      0.00000000      0.00000000      0.00000000</v>
   <i type="logical" name="LNICSALL"> T  </i>
   <i type="logical" name="ORBITALMAG"> F  </i>
   <i type="logical" name="LMAGBLOCH"> F  </i>
   <i type="logical" name="LCHIMAG"> F  </i>
   <i type="logical" name="LGAUGE"> T  </i>
   <i type="int" name="MAGATOM">     0</i>
   <v name="MAGDIPOL">      0.00000000      0.00000000      0.00000000</v>
   <v name="AVECCONST">      0.00000000      0.00000000      0.00000000</v>
  </separator>
  <separator name="response functions" >
   <i type="logical" name="LFINITE_TEMPERATURE"> F  </i>
   <i type="logical" name="LADDER"> F  </i>
   <i type="logical" name="LRPAFORCE"> F  </i>
   <i type="logical" name="LFXC"> F  </i>
   <i type="logical" name="LHARTREE"> T  </i>
   <i type="int" name="IBSE">     0</i>
   <v type="int" name="KPOINT">    -1     0     0     0</v>
   <i type="logical" name="LTCTC"> F  </i>
   <i type="logical" name="LTCTE"> F  </i>
   <i type="logical" name="LTETE"> F  </i>
   <i type="logical" name="LTRIPLET"> F  </i>
   <i type="logical" name="LFXCEPS"> F  </i>
   <i type="logical" name="LFXHEG"> F  </i>
   <i type="int" name="NATURALO">     2</i>
   <i type="logical" name="LHOLEGF"> F  </i>
   <i type="logical" name="L2ORDER"> F  </i>
   <i type="logical" name="LDMP1"> F  </i>
   <i type="logical" name="LMP2LT"> F  </i>
   <i type="logical" name="LSMP2LT"> F  </i>
   <i type="logical" name="LGWLF"> F  </i>
   <i name="ENCUTGW">     -2.00000000</i>
   <i name="ENCUTGWSOFT">     -2.00000000</i>
   <i name="ENCUTLF">     -1.00000000</i>
   <i type="logical" name="LESF_SPLINES"> F  </i>
   <i type="int" name="LMAXMP2">    -1</i>
   <i name="SCISSOR">      0.00000000</i>
   <i type="int" name="NOMEGA">     0</i>
   <i type="int" name="NOMEGAR">     0</i>
   <i type="int" name="NBANDSGW">    -1</i>
   <i type="int" name="NBANDSO">    -1</i>
   <i type="int" name="NBANDSV">    -1</i>
   <i type="int" name="NELMGW">     1</i>
   <i type="int" name="NELMHF">     1</i>
   <i type="int" name="DIM">     3</i>
   <i type="int" name="IESPILON">     4</i>
   <i type="int" name="ANTIRES">     0</i>
   <i name="OMEGAMAX">    -30.00000000</i>
   <i name="OMEGAMIN">    -30.00000000</i>
   <i name="OMEGATL">   -200.00000000</i>
   <i type="int" name="OMEGAGRID">     0</i>
   <i name="CSHIFT">     -0.10000000</i>
   <i type="logical" name="LSELFENERGY"> F  </i>
   <i type="logical" name="LSPECTRAL"> F  </i>
   <i type="logical" name="LSPECTRALGW"> F  </i>
   <i type="logical" name="LSINGLES"> F  </i>
   <i type="logical" name="LFERMIGW"> F  </i>
   <i type="logical" name="ODDONLYGW"> F  </i>
   <i type="logical" name="EVENONLYGW"> F  </i>
   <i type="int" name="NKREDLFX">     1</i>
   <i type="int" name="NKREDLFY">     1</i>
   <i type="int" name="NKREDLFZ">     1</i>
   <i type="int" name="MAXMEM">  2800</i>
   <i type="int" name="TELESCOPE">     0</i>
   <i type="int" name="NTAUPAR">    -1</i>
   <i type="int" name="NOMEGAPAR">    -1</i>
   <i name="DAMP_NEWTON">      0.80000001</i>
   <i name="LAMBDA">      1.00000000</i>
  </separator>
  <separator name="External order field" >
   <i name="OFIELD_KAPPA">      0.00000000</i>
   <v name="OFIELD_K">      0.00000000      0.00000000      0.00000000</v>
   <i name="OFIELD_Q6_NEAR">      0.00000000</i>
   <i name="OFIELD_Q6_FAR">      0.00000000</i>
   <i name="OFIELD_A">      0.00000000</i>
  </separator>
  <separator name="optional k-points parameters" >
   <i type="int" name="KPOINTS_OPT_MODE">     1</i>
   <i type="logical" name="LKPOINTS_OPT"> F  </i>
  </separator>
 </parameters>
 <atominfo>
  <atoms>       2 </atoms>
  <types>       1 </types>
  <array name="atoms" >
   <dimension dim="1">ion</dimension>
   <field type="string">element</field>
   <field type="int">atomtype</field>
   <set>
    <rc><c>Co</c><c>   1</c></rc>
    <rc><c>Co</c><c>   1</c></rc>
   </set>
  </array>
  <array name="atomtypes" >
   <dimension dim="1">type</dimension>
   <field type="int">atomspertype</field>
   <field type="string">element</field>
   <field>mass</field>
   <field>valence</field>
   <field type="string">pseudopotential</field>
   <set>
    <rc><c>   2</c><c>Co</c><c>     58.93300000</c><c>      9.00000000</c><c>  PAW_PBE Co 02Aug2007                  </c></rc>
   </set>
  </array>
 </atominfo>
 <structure name="initialpos" >
  <crystal>
   <varray name="basis" >
    <v>       1.24613780      -2.15837399       0.00000000 </v>
    <v>       1.24613780       2.15837399       0.00000000 </v>
    <v>       0.00000000       0.00000000       4.02015843 </v>
   </varray>
   <i name="volume">     21.62548890 </i>
   <varray name="rec_basis" >
    <v>       0.40123973      -0.23165587       0.00000000 </v>
    <v>       0.40123973       0.23165587       0.00000000 </v>
    <v>       0.00000000       0.00000000       0.24874642 </v>
   </varray>
  </crystal>
  <varray name="positions" >
   <v>       0.33333333       0.66666667       0.25000000 </v>
   <v>       0.66666667       0.33333333       0.75000000 </v>
  </varray>
 </structure>
 <calculation>
  <scstep>
   <time name="dav">    0.75    0.75</time>
   <time name="total">    0.76    0.77</time>
   <energy>
    <i name="alphaZ">     78.34771475 </i>
    <i name="ewald">  -1523.37454503 </i>
    <i name="hartreedc">   -299.30680901 </i>
    <i name="XCdc">     35.65145316 </i>
    <i name="pawpsdc">   1439.98163886 </i>
    <i name="pawaedc">  -1545.88690193 </i>
    <i name="eentropy">     -0.00322499 </i>
    <i name="bandstr">    191.84007103 </i>
    <i name="atom">   1626.72322989 </i>
    <i name="e_fr_energy">      3.97262673 </i>
    <i name="e_wo_entrp">      3.97585172 </i>
    <i name="e_0_energy">      3.97423923 </i>
   </energy>
  </scstep>
  <scstep>
   <time name="dav">    0.97    0.97</time>
   <time name="total">    0.97    0.98</time>
   <energy>
    <i name="e_fr_energy">    -15.51074148 </i>
    <i name="e_wo_entrp">    -15.50897585 </i>
    <i name="e_0_energy">    -15.50985866 </i>
   </energy>
  </scstep>
  <scstep>
   <time name="dav">    1.25    1.26</time>
   <time name="total">    1.25    1.26</time>
   <energy>
    <i name="e_fr_energy">    -15.64470008 </i>
    <i name="e_wo_entrp">    -15.64300364 </i>
    <i name="e_0_energy">    -15.64385186 </i>
   </energy>
  </scstep>
  <scstep>
   <time name="dav">    1.36    1.37</time>
   <time name="total">    1.36    1.37</time>
   <energy>
    <i name="e_fr_energy">    -15.64532164 </i>
    <i name="e_wo_entrp">    -15.64362693 </i>
    <i name="e_0_energy">    -15.64447429 </i>
   </energy>
  </scstep>
  <scstep>
   <time name="dav">    1.36    1.37</time>
   <time name="total">    1.40    1.40</time>
   <energy>
    <i name="e_fr_energy">    -15.64532194 </i>
    <i name="e_wo_entrp">    -15.64362722 </i>
    <i name="e_0_energy">    -15.64447458 </i>
   </energy>
  </scstep>
  <scstep>
   <time name="dav">    1.78    1.79</time>
   <time name="total">    1.82    1.83</time>
   <energy>
    <i name="e_fr_energy">    -14.47221073 </i>
    <i name="e_wo_entrp">    -14.47011218 </i>
    <i name="e_0_energy">    -14.47116146 </i>
   </energy>
  </scstep>
  <scstep>
   <time name="dav">    1.77    1.78</time>
   <time name="total">    1.81    1.82</time>
   <energy>
    <i name="e_fr_energy">    -14.10705219 </i>
    <i name="e_wo_entrp">    -14.10548599 </i>
    <i name="e_0_energy">    -14.10626909 </i>
   </energy>
  </scstep>
  <scstep>
   <time name="dav">    1.80    1.81</time>
   <time name="total">    1.85    1.86</time>
   <energy>
    <i name="e_fr_energy">    -14.08122214 </i>
    <i name="e_wo_entrp">    -14.07968520 </i>
    <i name="e_0_energy">    -14.08045367 </i>
   </energy>
  </scstep>
  <scstep>
   <time name="dav">    2.09    2.10</time>
   <time name="total">    2.13    2.14</time>
   <energy>
    <i name="e_fr_energy">    -14.06740057 </i>
    <i name="e_wo_entrp">    -14.06570848 </i>
    <i name="e_0_energy">    -14.06655453 </i>
   </energy>
  </scstep>
  <scstep>
   <time name="dav">    2.07    2.08</time>
   <time name="total">    2.11    2.12</time>
   <energy>
    <i name="e_fr_energy">    -14.06634198 </i>
    <i name="e_wo_entrp">    -14.06459458 </i>
    <i name="e_0_energy">    -14.06546828 </i>
   </energy>
  </scstep>
  <scstep>
   <time name="dav">    1.57    1.58</time>
   <time name="total">    1.61    1.62</time>
   <energy>
    <i name="e_fr_energy">    -14.06634473 </i>
    <i name="e_wo_entrp">    -14.06462491 </i>
    <i name="e_0_energy">    -14.06548482 </i>
   </energy>
  </scstep>
  <scstep>
   <time name="dav">    1.37    1.37</time>
   <time name="total">    1.41    1.42</time>
   <energy>
    <i name="e_fr_energy">    -14.06634139 </i>
    <i name="e_wo_entrp">    -14.06461756 </i>
    <i name="e_0_energy">    -14.06547948 </i>
   </energy>
  </scstep>
  <scstep>
   <time name="dav">    1.93    1.94</time>
   <time name="total">    1.94    1.95</time>
   <energy>
    <i name="alphaZ">     78.34771475 </i>
    <i name="ewald">  -1523.37454503 </i>
    <i name="hartreedc">   -263.96660568 </i>
    <i name="XCdc">     32.86568948 </i>
    <i name="pawpsdc">   1809.99572470 </i>
    <i name="pawaedc">  -1916.02478880 </i>
    <i name="eentropy">     -0.00172389 </i>
    <i name="bandstr">    141.36896331 </i>
    <i name="atom">   1626.72322989 </i>
    <i name="e_fr_energy">    -14.06634127 </i>
    <i name="e_wo_entrp">    -14.06461738 </i>
    <i name="e_0_energy">    -14.06547933 </i>
   </energy>
  </scstep>
  <structure>
   <crystal>
    <varray name="basis" >
     <v>       1.24613780      -2.15837399       0.00000000 </v>
     <v>       1.24613780       2.15837399       0.00000000 </v>
     <v>       0.00000000       0.00000000       4.02015843 </v>
    </varray>
    <i name="volume">     21.62548890 </i>
    <varray name="rec_basis" >
     <v>       0.40123973      -0.23165587       0.00000000 </v>
     <v>       0.40123973       0.23165587       0.00000000 </v>
     <v>       0.00000000       0.00000000       0.24874642 </v>
    </varray>
   </crystal>
   <varray name="positions" >
    <v>       0.33333333       0.66666667       0.25000000 </v>
    <v>       0.66666667       0.33333333       0.75000000 </v>
   </varray>
  </structure>
  <varray name="forces" >
   <v>       0.00000000       0.00000000      -0.00000000 </v>
   <v>      -0.00000000       0.00000000       0.00000000 </v>
  </varray>
  <varray name="stress" >
   <v>       0.25485493       0.00000000      -0.00000000 </v>
   <v>      -0.00000000       0.25485493      -0.00000000 </v>
   <v>      -0.00000000       0.00000000      -0.10511835 </v>
  </varray>
  <energy>
   <i name="e_fr_energy">    -14.06634127 </i>
   <i name="e_wo_entrp">    -14.06461738 </i>
   <i name="e_0_energy">    -14.06547933 </i>
  </energy>
  <time name="totalsc">   20.71   20.82</time>
  <eigenvalues>
   <array>
    <dimension dim="1">band</dimension>
    <dimension dim="2">kpoint</dimension>
    <dimension dim="3">spin</dimension>
    <field>eigene</field>
    <field>occ</field>
    <set>
     <set comment="spin 1">
      <set comment="kpoint 1">
       <r>    1.3752    1.0000 </r>
       <r>    5.1516    1.0000 </r>
       <r>    7.6851    1.0000 </r>
       <r>    7.6907    1.0000 </r>
       <r>    7.6907    1.0000 </r>
       <r>    8.0064    1.0000 </r>
       <r>    8.0064    1.0000 </r>
       <r>    8.3526    1.0000 </r>
       <r>    8.3526    1.0000 </r>
       <r>    9.4660    1.0000 </r>
       <r>    9.4660    1.0000 </r>
       <r>   10.2578    0.5968 </r>
       <r>   16.7134    0.0000 </r>
       <r>   32.2763    0.0000 </r>
       <r>   34.8449    0.0000 </r>
       <r>   34.8449    0.0000 </r>
       <r>   35.4061    0.0000 </r>
       <r>   35.8586    0.0000 </r>
       <r>   36.1969    0.0000 </r>
       <r>   36.1969    0.0000 </r>
       <r>   40.8081    0.0000 </r>
       <r>   40.8081    0.0000 </r>
       <r>   41.7192    0.0000 </r>
       <r>   42.2166    0.0000 </r>
      </set>
      <set comment="kpoint 2">
       <r>    1.6185    1.0000 </r>
       <r>    5.2961    1.0000 </r>
       <r>    7.4588    1.0000 </r>
       <r>    7.8039    1.0000 </r>
       <r>    7.8785    1.0000 </r>
       <r>    7.9616    1.0000 </r>
       <r>    8.1063    1.0000 </r>
       <r>    8.2043    1.0000 </r>
       <r>    8.2816    1.0000 </r>
       <r>    8.7109    1.0000 </r>
       <r>    9.4964    1.0000 </r>
       <r>   11.3273    0.0000 </r>
       <r>   16.7561    0.0000 </r>
       <r>   30.4170    0.0000 </r>
       <r>   32.7232    0.0000 </r>
       <r>   32.7605    0.0000 </r>
       <r>   35.8690    0.0000 </r>
       <r>   36.2768    0.0000 </r>
       <r>   37.6681    0.0000 </r>
       <r>   38.5477    0.0000 </r>
       <r>   39.3145    0.0000 </r>
       <r>   40.2879    0.0000 </r>
       <r>   41.2891    0.0000 </r>
       <r>   41.4988    0.0000 </r>
      </set>
      <set comment="kpoint 3">
       <r>    2.3222    1.0000 </r>
       <r>    5.6523    1.0000 </r>
       <r>    7.1848    1.0000 </r>
       <r>    7.5067    1.0000 </r>
       <r>    7.7916    1.0000 </r>
       <r>    8.1065    1.0000 </r>
       <r>    8.1237    1.0000 </r>
       <r>    8.1837    1.0000 </r>
       <r>    8.3261    1.0000 </r>
       <r>    8.3864    1.0000 </r>
       <r>    9.5614    1.0000 </r>
       <r>   12.9183    0.0000 </r>
       <r>   16.9053    0.0000 </r>
       <r>   26.5987    0.0000 </r>
       <r>   30.3279    0.0000 </r>
       <r>   31.8209    0.0000 </r>
       <r>   33.7338    0.0000 </r>
       <r>   35.9747    0.0000 </r>
       <r>   36.7508    0.0000 </r>
       <r>   38.9337    0.0000 </r>
       <r>   39.4632    0.0000 </r>
       <r>   40.1551    0.0000 </r>
       <r>   40.6753    0.0000 </r>
       <r>   42.2112    0.0000 </r>
      </set>
      <set comment="kpoint 4">
       <r>    3.3857    1.0000 </r>
       <r>    5.9340    1.0000 </r>
       <r>    6.7819    1.0000 </r>
       <r>    7.0218    1.0000 </r>
       <r>    7.7032    1.0000 </r>
       <r>    7.8959    1.0000 </r>
       <r>    8.1266    1.0000 </r>
       <r>    8.5863    1.0000 </r>
       <r>    8.6112    1.0000 </r>
       <r>    8.7889    1.0000 </r>
       <r>    9.6230    1.0000 </r>
       <r>   14.7169    0.0000 </r>
       <r>   17.1922    0.0000 </r>
       <r>   22.8909    0.0000 </r>
       <r>   28.2496    0.0000 </r>
       <r>   30.3808    0.0000 </r>
       <r>   30.6176    0.0000 </r>
       <r>   34.4751    0.0000 </r>
       <r>   34.9543    0.0000 </r>
       <r>   38.6701    0.0000 </r>
       <r>   38.7945    0.0000 </r>
       <r>   39.5702    0.0000 </r>
       <r>   40.7297    0.0000 </r>
       <r>   43.6297    0.0000 </r>
      </set>
      <set comment="kpoint 5">
       <r>    4.5409    1.0000 </r>
       <r>    5.8628    1.0000 </r>
       <r>    6.2527    1.0000 </r>
       <r>    7.1406    1.0000 </r>
       <r>    7.7062    1.0000 </r>
       <r>    7.8300    1.0000 </r>
       <r>    7.9521    1.0000 </r>
       <r>    9.0788    1.0000 </r>
       <r>    9.2251    1.0000 </r>
       <r>    9.2968    1.0000 </r>
       <r>    9.6655    1.0000 </r>
       <r>   16.6786    0.0000 </r>
       <r>   17.2568    0.0000 </r>
       <r>   20.0335    0.0000 </r>
       <r>   26.6012    0.0000 </r>
       <r>   27.3087    0.0000 </r>
       <r>   28.3572    0.0000 </r>
       <r>   32.9912    0.0000 </r>
       <r>   33.8207    0.0000 </r>
       <r>   36.8791    0.0000 </r>
       <r>   38.3362    0.0000 </r>
       <r>   40.3487    0.0000 </r>
       <r>   42.5156    0.0000 </r>
       <r>   44.6848    0.0000 </r>
      </set>
      <set comment="kpoint 6">
       <r>    5.2880    1.0000 </r>
       <r>    5.6767    1.0000 </r>
       <r>    5.9353    1.0000 </r>
       <r>    7.5157    1.0000 </r>
       <r>    7.5767    1.0000 </r>
       <r>    7.8293    1.0000 </r>
       <r>    8.0334    1.0000 </r>
       <r>    9.4466    1.0000 </r>
       <r>    9.5860    1.0000 </r>
       <r>    9.6883    1.0000 </r>
       <r>   10.4206    0.0000 </r>
       <r>   15.3658    0.0000 </r>
       <r>   18.7079    0.0000 </r>
       <r>   19.9610    0.0000 </r>
       <r>   24.6258    0.0000 </r>
       <r>   25.5178    0.0000 </r>
       <r>   25.7369    0.0000 </r>
       <r>   32.4937    0.0000 </r>
       <r>   33.0476    0.0000 </r>
       <r>   35.7151    0.0000 </r>
       <r>   38.0738    0.0000 </r>
       <r>   40.8355    0.0000 </r>
       <r>   44.9383    0.0000 </r>
       <r>   45.2239    0.0000 </r>
      </set>
      <set comment="kpoint 7">
       <r>    5.5256    1.0000 </r>
       <r>    5.5505    1.0000 </r>
       <r>    5.8298    1.0000 </r>
       <r>    7.5309    1.0000 </r>
       <r>    7.7674    1.0000 </r>
       <r>    7.7852    1.0000 </r>
       <r>    8.1098    1.0000 </r>
       <r>    9.5795    1.0000 </r>
       <r>    9.6954    1.0000 </r>
       <r>    9.7319    1.0000 </r>
       <r>   11.5975    0.0000 </r>
       <r>   13.6151    0.0000 </r>
       <r>   20.0345    0.0000 </r>
       <r>   20.6847    0.0000 </r>
       <r>   23.0842    0.0000 </r>
       <r>   24.3160    0.0000 </r>
       <r>   25.1361    0.0000 </r>
       <r>   32.3728    0.0000 </r>
       <r>   32.7791    0.0000 </r>
       <r>   35.3108    0.0000 </r>
       <r>   37.9886    0.0000 </r>
       <r>   41.0173    0.0000 </r>
       <r>   45.3733    0.0000 </r>
       <r>   46.8543    0.0000 </r>
      </set>
      <set comment="kpoint 8">
       <r>    2.0929    1.0000 </r>
       <r>    5.5523    1.0000 </r>
       <r>    7.2425    1.0000 </r>
       <r>    7.7520    1.0000 </r>
       <r>    7.8570    1.0000 </r>
       <r>    8.0354    1.0000 </r>
       <r>    8.0361    1.0000 </r>
       <r>    8.0800    1.0000 </r>
       <r>    8.3277    1.0000 </r>
       <r>    8.4446    1.0000 </r>
       <r>    9.5345    1.0000 </r>
       <r>   12.4714    0.0000 </r>
       <r>   16.8540    0.0000 </r>
       <r>   28.3417    0.0000 </r>
       <r>   29.0656    0.0000 </r>
       <r>   34.3121    0.0000 </r>
       <r>   35.2541    0.0000 </r>
       <r>   35.4246    0.0000 </r>
       <r>   35.5475    0.0000 </r>
       <r>   38.6938    0.0000 </r>
       <r>   39.5789    0.0000 </r>
       <r>   40.1488    0.0000 </r>
       <r>   42.2805    0.0000 </r>
       <r>   42.7289    0.0000 </r>
      </set>
      <set comment="kpoint 9">
       <r>    2.9853    1.0000 </r>
       <r>    5.9160    1.0000 </r>
       <r>    6.9716    1.0000 </r>
       <r>    7.0496    1.0000 </r>
       <r>    7.7401    1.0000 </r>
       <r>    7.8579    1.0000 </r>
       <r>    8.2885    1.0000 </r>
       <r>    8.2896    1.0000 </r>
       <r>    8.4569    1.0000 </r>
       <r>    8.7426    1.0000 </r>
       <r>    9.5815    1.0000 </r>
       <r>   14.0674    0.0000 </r>
       <r>   17.0933    0.0000 </r>
       <r>   24.7858    0.0000 </r>
       <r>   27.0034    0.0000 </r>
       <r>   32.0791    0.0000 </r>
       <r>   33.0646    0.0000 </r>
       <r>   34.1352    0.0000 </r>
       <r>   35.7075    0.0000 </r>
       <r>   37.0727    0.0000 </r>
       <r>   38.9134    0.0000 </r>
       <r>   40.7839    0.0000 </r>
       <r>   42.3082    0.0000 </r>
       <r>   42.7714    0.0000 </r>
      </set>
      <set comment="kpoint 10">
       <r>    4.1327    1.0000 </r>
       <r>    6.0305    1.0000 </r>
       <r>    6.4702    1.0000 </r>
       <r>    6.9062    1.0000 </r>
       <r>    7.6713    1.0000 </r>
       <r>    7.7561    1.0000 </r>
       <r>    8.0949    1.0000 </r>
       <r>    8.6888    1.0000 </r>
       <r>    8.9563    1.0000 </r>
       <r>    9.3080    1.0000 </r>
       <r>    9.6212    1.0000 </r>
       <r>   15.9093    0.0000 </r>
       <r>   17.4530    0.0000 </r>
       <r>   21.3346    0.0000 </r>
       <r>   25.4623    0.0000 </r>
       <r>   28.9164    0.0000 </r>
       <r>   30.3595    0.0000 </r>
       <r>   32.8737    0.0000 </r>
       <r>   35.0044    0.0000 </r>
       <r>   35.4445    0.0000 </r>
       <r>   39.5634    0.0000 </r>
       <r>   42.1807    0.0000 </r>
       <r>   42.4356    0.0000 </r>
       <r>   43.4466    0.0000 </r>
      </set>
      <set comment="kpoint 11">
       <r>    5.1323    1.0000 </r>
       <r>    5.8553    1.0000 </r>
       <r>    6.0764    1.0000 </r>
       <r>    7.1483    1.0000 </r>
       <r>    7.5502    1.0000 </r>
       <r>    7.9042    1.0000 </r>
       <r>    7.9501    1.0000 </r>
       <r>    9.1873    1.0000 </r>
       <r>    9.3825    1.0000 </r>
       <r>    9.6460    1.0000 </r>
       <r>   10.1162    1.0000 </r>
       <r>   16.7254    0.0000 </r>
       <r>   17.9121    0.0000 </r>
       <r>   19.7261    0.0000 </r>
       <r>   24.2670    0.0000 </r>
       <r>   26.0334    0.0000 </r>
       <r>   27.3871    0.0000 </r>
       <r>   31.9563    0.0000 </r>
       <r>   34.3299    0.0000 </r>
       <r>   34.4140    0.0000 </r>
       <r>   39.6119    0.0000 </r>
       <r>   42.5147    0.0000 </r>
       <r>   44.0710    0.0000 </r>
       <r>   45.0197    0.0000 </r>
      </set>
      <set comment="kpoint 12">
       <r>    5.5653    1.0000 </r>
       <r>    5.6975    1.0000 </r>
       <r>    5.8790    1.0000 </r>
       <r>    7.5015    1.0000 </r>
       <r>    7.5226    1.0000 </r>
       <r>    7.7782    1.0000 </r>
       <r>    8.1056    1.0000 </r>
       <r>    9.5421    1.0000 </r>
       <r>    9.6129    1.0000 </r>
       <r>    9.6569    1.0000 </r>
       <r>   11.4177    0.0000 </r>
       <r>   14.3879    0.0000 </r>
       <r>   19.8324    0.0000 </r>
       <r>   20.5857    0.0000 </r>
       <r>   23.4761    0.0000 </r>
       <r>   23.6785    0.0000 </r>
       <r>   25.1394    0.0000 </r>
       <r>   31.4790    0.0000 </r>
       <r>   33.7410    0.0000 </r>
       <r>   34.1152    0.0000 </r>
       <r>   39.5028    0.0000 </r>
       <r>   42.7298    0.0000 </r>
       <r>   45.3964    0.0000 </r>
       <r>   46.5295    0.0000 </r>
      </set>
      <set comment="kpoint 13">
       <r>    3.9885    1.0000 </r>
       <r>    6.2102    1.0000 </r>
       <r>    6.5848    1.0000 </r>
       <r>    6.6794    1.0000 </r>
       <r>    7.6021    1.0000 </r>
       <r>    7.7514    1.0000 </r>
       <r>    8.1869    1.0000 </r>
       <r>    8.4561    1.0000 </r>
       <r>    8.9454    1.0000 </r>
       <r>    9.3288    1.0000 </r>
       <r>    9.5832    1.0000 </r>
       <r>   15.6490    0.0000 </r>
       <r>   17.4924    0.0000 </r>
       <r>   23.0473    0.0000 </r>
       <r>   23.5092    0.0000 </r>
       <r>   30.4479    0.0000 </r>
       <r>   31.2788    0.0000 </r>
       <r>   32.3872    0.0000 </r>
       <r>   33.1558    0.0000 </r>
       <r>   37.8637    0.0000 </r>
       <r>   39.9506    0.0000 </r>
       <r>   40.4467    0.0000 </r>
       <r>   43.9355    0.0000 </r>
       <r>   45.1851    0.0000 </r>
      </set>
      <set comment="kpoint 14">
       <r>    5.0817    1.0000 </r>
       <r>    6.1920    1.0000 </r>
       <r>    6.2173    1.0000 </r>
       <r>    6.6590    1.0000 </r>
       <r>    7.4483    1.0000 </r>
       <r>    7.8972    1.0000 </r>
       <r>    7.9969    1.0000 </r>
       <r>    8.7619    1.0000 </r>
       <r>    9.3850    1.0000 </r>
       <r>    9.5810    1.0000 </r>
       <r>   10.1361    0.9999 </r>
       <r>   17.5123    0.0000 </r>
       <r>   17.8704    0.0000 </r>
       <r>   20.2181    0.0000 </r>
       <r>   22.0975    0.0000 </r>
       <r>   27.7950    0.0000 </r>
       <r>   29.3540    0.0000 </r>
       <r>   29.8865    0.0000 </r>
       <r>   31.8614    0.0000 </r>
       <r>   38.0163    0.0000 </r>
       <r>   41.3085    0.0000 </r>
       <r>   42.7641    0.0000 </r>
       <r>   44.5575    0.0000 </r>
       <r>   45.1477    0.0000 </r>
      </set>
      <set comment="kpoint 15">
       <r>    5.7571    1.0000 </r>
       <r>    5.9894    1.0000 </r>
       <r>    5.9925    1.0000 </r>
       <r>    6.9809    1.0000 </r>
       <r>    7.4062    1.0000 </r>
       <r>    7.7911    1.0000 </r>
       <r>    8.0993    1.0000 </r>
       <r>    9.1652    1.0000 </r>
       <r>    9.5783    1.0000 </r>
       <r>    9.6034    1.0000 </r>
       <r>   11.3295    0.0000 </r>
       <r>   16.0607    0.0000 </r>
       <r>   19.5350    0.0000 </r>
       <r>   20.1632    0.0000 </r>
       <r>   21.3368    0.0000 </r>
       <r>   25.1154    0.0000 </r>
       <r>   26.4690    0.0000 </r>
       <r>   29.2297    0.0000 </r>
       <r>   31.1077    0.0000 </r>
       <r>   37.6765    0.0000 </r>
       <r>   42.1064    0.0000 </r>
       <r>   44.7945    0.0000 </r>
       <r>   46.0487    0.0000 </r>
       <r>   46.2226    0.0000 </r>
      </set>
      <set comment="kpoint 16">
       <r>    5.8951    1.0000 </r>
       <r>    5.9129    1.0000 </r>
       <r>    5.9209    1.0000 </r>
       <r>    7.2051    1.0000 </r>
       <r>    7.4229    1.0000 </r>
       <r>    7.6843    1.0000 </r>
       <r>    8.1853    1.0000 </r>
       <r>    9.4374    1.0000 </r>
       <r>    9.5770    1.0000 </r>
       <r>    9.5827    1.0000 </r>
       <r>   12.6188    0.0000 </r>
       <r>   14.1885    0.0000 </r>
       <r>   20.6605    0.0000 </r>
       <r>   20.9746    0.0000 </r>
       <r>   21.3762    0.0000 </r>
       <r>   23.4540    0.0000 </r>
       <r>   24.9828    0.0000 </r>
       <r>   29.0142    0.0000 </r>
       <r>   30.8407    0.0000 </r>
       <r>   37.5427    0.0000 </r>
       <r>   42.2598    0.0000 </r>
       <r>   45.5657    0.0000 </r>
       <r>   45.7117    0.0000 </r>
       <r>   46.8605    0.0000 </r>
      </set>
      <set comment="kpoint 17">
       <r>    5.8944    1.0000 </r>
       <r>    6.0528    1.0000 </r>
       <r>    6.3912    1.0000 </r>
       <r>    6.4447    1.0000 </r>
       <r>    7.3428    1.0000 </r>
       <r>    7.8064    1.0000 </r>
       <r>    8.1039    1.0000 </r>
       <r>    8.9406    1.0000 </r>
       <r>    9.5379    1.0000 </r>
       <r>    9.6099    1.0000 </r>
       <r>   11.3333    0.0000 </r>
       <r>   17.8519    0.0000 </r>
       <r>   18.5771    0.0000 </r>
       <r>   19.4174    0.0000 </r>
       <r>   20.7710    0.0000 </r>
       <r>   26.9678    0.0000 </r>
       <r>   27.0894    0.0000 </r>
       <r>   28.1140    0.0000 </r>
       <r>   29.0053    0.0000 </r>
       <r>   41.0268    0.0000 </r>
       <r>   42.8274    0.0000 </r>
       <r>   43.3094    0.0000 </r>
       <r>   45.6892    0.0000 </r>
       <r>   47.1236    0.0000 </r>
      </set>
      <set comment="kpoint 18">
       <r>    5.9745    1.0000 </r>
       <r>    6.1675    1.0000 </r>
       <r>    6.2582    1.0000 </r>
       <r>    6.7641    1.0000 </r>
       <r>    7.3626    1.0000 </r>
       <r>    7.6090    1.0000 </r>
       <r>    8.2705    1.0000 </r>
       <r>    9.2128    1.0000 </r>
       <r>    9.5124    1.0000 </r>
       <r>    9.5561    1.0000 </r>
       <r>   13.0119    0.0000 </r>
       <r>   15.5942    0.0000 </r>
       <r>   17.9351    0.0000 </r>
       <r>   21.4544    0.0000 </r>
       <r>   21.8319    0.0000 </r>
       <r>   24.4909    0.0000 </r>
       <r>   25.9370    0.0000 </r>
       <r>   26.6735    0.0000 </r>
       <r>   28.2101    0.0000 </r>
       <r>   41.4451    0.0000 </r>
       <r>   44.9120    0.0000 </r>
       <r>   45.1696    0.0000 </r>
       <r>   46.5428    0.0000 </r>
       <r>   47.2676    0.0000 </r>
      </set>
      <set comment="kpoint 19">
       <r>    5.9796    1.0000 </r>
       <r>    6.3593    1.0000 </r>
       <r>    6.3593    1.0000 </r>
       <r>    6.6429    1.0000 </r>
       <r>    7.4398    1.0000 </r>
       <r>    7.4398    1.0000 </r>
       <r>    8.3670    1.0000 </r>
       <r>    9.3577    1.0000 </r>
       <r>    9.3577    1.0000 </r>
       <r>    9.4860    1.0000 </r>
       <r>   14.7671    0.0000 </r>
       <r>   15.5896    0.0000 </r>
       <r>   15.5896    0.0000 </r>
       <r>   22.6984    0.0000 </r>
       <r>   23.4472    0.0000 </r>
       <r>   23.4472    0.0000 </r>
       <r>   25.3045    0.0000 </r>
       <r>   26.2674    0.0000 </r>
       <r>   26.2674    0.0000 </r>
       <r>   43.9732    0.0000 </r>
       <r>   45.8883    0.0000 </r>
       <r>   45.8883    0.0000 </r>
       <r>   47.3281    0.0000 </r>
       <r>   47.3281    0.0000 </r>
      </set>
      <set comment="kpoint 20">
       <r>    1.5338    1.0000 </r>
       <r>    5.1219    1.0000 </r>
       <r>    7.6440    1.0000 </r>
       <r>    7.6479    1.0000 </r>
       <r>    7.6479    1.0000 </r>
       <r>    7.9631    1.0000 </r>
       <r>    7.9631    1.0000 </r>
       <r>    8.4516    1.0000 </r>
       <r>    8.4516    1.0000 </r>
       <r>    9.4579    1.0000 </r>
       <r>    9.4579    1.0000 </r>
       <r>    9.6358    1.0000 </r>
       <r>   17.6469    0.0000 </r>
       <r>   32.2193    0.0000 </r>
       <r>   34.5858    0.0000 </r>
       <r>   34.9880    0.0000 </r>
       <r>   34.9880    0.0000 </r>
       <r>   35.0857    0.0000 </r>
       <r>   36.2479    0.0000 </r>
       <r>   36.2479    0.0000 </r>
       <r>   40.4204    0.0000 </r>
       <r>   40.4204    0.0000 </r>
       <r>   42.0817    0.0000 </r>
       <r>   42.5676    0.0000 </r>
      </set>
      <set comment="kpoint 21">
       <r>    1.7747    1.0000 </r>
       <r>    5.2748    1.0000 </r>
       <r>    7.4560    1.0000 </r>
       <r>    7.7490    1.0000 </r>
       <r>    7.7685    1.0000 </r>
       <r>    7.8563    1.0000 </r>
       <r>    8.0579    1.0000 </r>
       <r>    8.3363    1.0000 </r>
       <r>    8.4003    1.0000 </r>
       <r>    8.6246    1.0000 </r>
       <r>    9.4839    1.0000 </r>
       <r>   10.7843    0.0000 </r>
       <r>   17.7392    0.0000 </r>
       <r>   30.4988    0.0000 </r>
       <r>   32.7396    0.0000 </r>
       <r>   32.8759    0.0000 </r>
       <r>   34.6082    0.0000 </r>
       <r>   35.6033    0.0000 </r>
       <r>   37.5814    0.0000 </r>
       <r>   38.4823    0.0000 </r>
       <r>   39.6468    0.0000 </r>
       <r>   39.9184    0.0000 </r>
       <r>   40.4654    0.0000 </r>
       <r>   42.3636    0.0000 </r>
      </set>
      <set comment="kpoint 22">
       <r>    2.4692    1.0000 </r>
       <r>    5.6565    1.0000 </r>
       <r>    7.2012    1.0000 </r>
       <r>    7.3429    1.0000 </r>
       <r>    7.7372    1.0000 </r>
       <r>    7.9647    1.0000 </r>
       <r>    8.1005    1.0000 </r>
       <r>    8.2752    1.0000 </r>
       <r>    8.3966    1.0000 </r>
       <r>    8.4826    1.0000 </r>
       <r>    9.5391    1.0000 </r>
       <r>   12.1479    0.0000 </r>
       <r>   18.0480    0.0000 </r>
       <r>   26.7287    0.0000 </r>
       <r>   30.5089    0.0000 </r>
       <r>   31.5429    0.0000 </r>
       <r>   33.3079    0.0000 </r>
       <r>   34.8217    0.0000 </r>
       <r>   37.1379    0.0000 </r>
       <r>   38.0792    0.0000 </r>
       <r>   38.9394    0.0000 </r>
       <r>   39.8894    0.0000 </r>
       <r>   41.2255    0.0000 </r>
       <r>   43.3284    0.0000 </r>
      </set>
      <set comment="kpoint 23">
       <r>    3.5080    1.0000 </r>
       <r>    5.9671    1.0000 </r>
       <r>    6.6968    1.0000 </r>
       <r>    7.0526    1.0000 </r>
       <r>    7.6074    1.0000 </r>
       <r>    7.9161    1.0000 </r>
       <r>    8.1374    1.0000 </r>
       <r>    8.6211    1.0000 </r>
       <r>    8.6777    1.0000 </r>
       <r>    8.7553    1.0000 </r>
       <r>    9.5912    1.0000 </r>
       <r>   13.5711    0.0000 </r>
       <r>   18.6306    0.0000 </r>
       <r>   23.0350    0.0000 </r>
       <r>   28.4559    0.0000 </r>
       <r>   29.0566    0.0000 </r>
       <r>   31.5194    0.0000 </r>
       <r>   34.3637    0.0000 </r>
       <r>   35.0400    0.0000 </r>
       <r>   36.6528    0.0000 </r>
       <r>   38.4680    0.0000 </r>
       <r>   40.6056    0.0000 </r>
       <r>   40.8108    0.0000 </r>
       <r>   45.4147    0.0000 </r>
      </set>
      <set comment="kpoint 24">
       <r>    4.5960    1.0000 </r>
       <r>    5.8907    1.0000 </r>
       <r>    6.2763    1.0000 </r>
       <r>    7.0388    1.0000 </r>
       <r>    7.7585    1.0000 </r>
       <r>    7.7632    1.0000 </r>
       <r>    8.1842    1.0000 </r>
       <r>    9.0961    1.0000 </r>
       <r>    9.1699    1.0000 </r>
       <r>    9.2561    1.0000 </r>
       <r>    9.6310    1.0000 </r>
       <r>   14.9201    0.0000 </r>
       <r>   18.9208    0.0000 </r>
       <r>   20.4576    0.0000 </r>
       <r>   26.0712    0.0000 </r>
       <r>   26.8285    0.0000 </r>
       <r>   29.6235    0.0000 </r>
       <r>   33.1671    0.0000 </r>
       <r>   33.5744    0.0000 </r>
       <r>   35.3440    0.0000 </r>
       <r>   39.3799    0.0000 </r>
       <r>   39.9533    0.0000 </r>
       <r>   41.6996    0.0000 </r>
       <r>   46.5093    0.0000 </r>
      </set>
      <set comment="kpoint 25">
       <r>    5.2117    1.0000 </r>
       <r>    5.6689    1.0000 </r>
       <r>    6.1477    1.0000 </r>
       <r>    7.0546    1.0000 </r>
       <r>    7.6409    1.0000 </r>
       <r>    8.0271    1.0000 </r>
       <r>    8.4079    1.0000 </r>
       <r>    9.4401    1.0000 </r>
       <r>    9.5121    1.0000 </r>
       <r>    9.6760    1.0000 </r>
       <r>   10.3330    0.0299 </r>
       <r>   14.9344    0.0000 </r>
       <r>   18.0886    0.0000 </r>
       <r>   20.8413    0.0000 </r>
       <r>   23.9059    0.0000 </r>
       <r>   25.7603    0.0000 </r>
       <r>   27.1021    0.0000 </r>
       <r>   32.5675    0.0000 </r>
       <r>   32.8855    0.0000 </r>
       <r>   34.4185    0.0000 </r>
       <r>   39.4724    0.0000 </r>
       <r>   40.5955    0.0000 </r>
       <r>   42.4258    0.0000 </r>
       <r>   46.3293    0.0000 </r>
      </set>
      <set comment="kpoint 26">
       <r>    5.3416    1.0000 </r>
       <r>    5.5582    1.0000 </r>
       <r>    6.1430    1.0000 </r>
       <r>    7.0779    1.0000 </r>
       <r>    7.5986    1.0000 </r>
       <r>    8.1099    1.0000 </r>
       <r>    8.5797    1.0000 </r>
       <r>    9.5336    1.0000 </r>
       <r>    9.6460    1.0000 </r>
       <r>    9.7273    1.0000 </r>
       <r>   11.4865    0.0000 </r>
       <r>   13.5234    0.0000 </r>
       <r>   19.4452    0.0000 </r>
       <r>   19.8041    0.0000 </r>
       <r>   24.2564    0.0000 </r>
       <r>   25.2264    0.0000 </r>
       <r>   25.3843    0.0000 </r>
       <r>   32.4271    0.0000 </r>
       <r>   32.6427    0.0000 </r>
       <r>   34.0845    0.0000 </r>
       <r>   39.3213    0.0000 </r>
       <r>   41.2473    0.0000 </r>
       <r>   42.6726    0.0000 </r>
       <r>   45.8039    0.0000 </r>
      </set>
      <set comment="kpoint 27">
       <r>    2.2435    1.0000 </r>
       <r>    5.5484    1.0000 </r>
       <r>    7.2559    1.0000 </r>
       <r>    7.5251    1.0000 </r>
       <r>    7.8104    1.0000 </r>
       <r>    7.9100    1.0000 </r>
       <r>    8.0426    1.0000 </r>
       <r>    8.2043    1.0000 </r>
       <r>    8.4025    1.0000 </r>
       <r>    8.5002    1.0000 </r>
       <r>    9.5169    1.0000 </r>
       <r>   11.7763    0.0000 </r>
       <r>   17.9416    0.0000 </r>
       <r>   28.4521    0.0000 </r>
       <r>   29.2084    0.0000 </r>
       <r>   33.8095    0.0000 </r>
       <r>   33.9441    0.0000 </r>
       <r>   35.0543    0.0000 </r>
       <r>   36.5644    0.0000 </r>
       <r>   37.1112    0.0000 </r>
       <r>   40.1177    0.0000 </r>
       <r>   40.6185    0.0000 </r>
       <r>   42.0631    0.0000 </r>
       <r>   42.2801    0.0000 </r>
      </set>
      <set comment="kpoint 28">
       <r>    3.1201    1.0000 </r>
       <r>    5.9446    1.0000 </r>
       <r>    6.9181    1.0000 </r>
       <r>    7.0046    1.0000 </r>
       <r>    7.6747    1.0000 </r>
       <r>    7.8736    1.0000 </r>
       <r>    8.1442    1.0000 </r>
       <r>    8.3713    1.0000 </r>
       <r>    8.5958    1.0000 </r>
       <r>    8.7262    1.0000 </r>
       <r>    9.5600    1.0000 </r>
       <r>   13.0780    0.0000 </r>
       <r>   18.4078    0.0000 </r>
       <r>   24.9259    0.0000 </r>
       <r>   27.1547    0.0000 </r>
       <r>   30.9443    0.0000 </r>
       <r>   33.0826    0.0000 </r>
       <r>   33.9948    0.0000 </r>
       <r>   36.3341    0.0000 </r>
       <r>   36.9894    0.0000 </r>
       <r>   38.0126    0.0000 </r>
       <r>   40.0371    0.0000 </r>
       <r>   42.6942    0.0000 </r>
       <r>   43.6985    0.0000 </r>
      </set>
      <set comment="kpoint 29">
       <r>    4.2263    1.0000 </r>
       <r>    6.0759    1.0000 </r>
       <r>    6.4151    1.0000 </r>
       <r>    6.9329    1.0000 </r>
       <r>    7.5807    1.0000 </r>
       <r>    7.8528    1.0000 </r>
       <r>    8.0832    1.0000 </r>
       <r>    8.6986    1.0000 </r>
       <r>    9.0108    1.0000 </r>
       <r>    9.2282    1.0000 </r>
       <r>    9.6249    1.0000 </r>
       <r>   14.4664    0.0000 </r>
       <r>   19.1217    0.0000 </r>
       <r>   21.5029    0.0000 </r>
       <r>   25.6231    0.0000 </r>
       <r>   27.7688    0.0000 </r>
       <r>   31.5385    0.0000 </r>
       <r>   32.0385    0.0000 </r>
       <r>   35.2044    0.0000 </r>
       <r>   36.2232    0.0000 </r>
       <r>   37.9876    0.0000 </r>
       <r>   40.7475    0.0000 </r>
       <r>   43.4481    0.0000 </r>
       <r>   44.7512    0.0000 </r>
      </set>
      <set comment="kpoint 30">
       <r>    5.1218    1.0000 </r>
       <r>    5.8751    1.0000 </r>
       <r>    6.1782    1.0000 </r>
       <r>    6.9690    1.0000 </r>
       <r>    7.6142    1.0000 </r>
       <r>    7.9421    1.0000 </r>
       <r>    8.1319    1.0000 </r>
       <r>    9.1592    1.0000 </r>
       <r>    9.4181    1.0000 </r>
       <r>    9.5348    1.0000 </r>
       <r>   10.1193    1.0000 </r>
       <r>   15.5216    0.0000 </r>
       <r>   18.3149    0.0000 </r>
       <r>   20.7418    0.0000 </r>
       <r>   24.3231    0.0000 </r>
       <r>   25.1063    0.0000 </r>
       <r>   28.7475    0.0000 </r>
       <r>   31.1313    0.0000 </r>
       <r>   34.4846    0.0000 </r>
       <r>   35.0581    0.0000 </r>
       <r>   38.7299    0.0000 </r>
       <r>   41.4301    0.0000 </r>
       <r>   43.8312    0.0000 </r>
       <r>   46.5176    0.0000 </r>
      </set>
      <set comment="kpoint 31">
       <r>    5.4131    1.0000 </r>
       <r>    5.6905    1.0000 </r>
       <r>    6.1804    1.0000 </r>
       <r>    7.0260    1.0000 </r>
       <r>    7.5384    1.0000 </r>
       <r>    8.1283    1.0000 </r>
       <r>    8.3136    1.0000 </r>
       <r>    9.4906    1.0000 </r>
       <r>    9.5949    1.0000 </r>
       <r>    9.6317    1.0000 </r>
       <r>   11.3820    0.0000 </r>
       <r>   14.2546    0.0000 </r>
       <r>   18.8619    0.0000 </r>
       <r>   20.6708    0.0000 </r>
       <r>   23.5944    0.0000 </r>
       <r>   24.2247    0.0000 </r>
       <r>   26.2368    0.0000 </r>
       <r>   30.6609    0.0000 </r>
       <r>   34.1842    0.0000 </r>
       <r>   34.4147    0.0000 </r>
       <r>   39.0374    0.0000 </r>
       <r>   42.4451    0.0000 </r>
       <r>   43.6628    0.0000 </r>
       <r>   46.1285    0.0000 </r>
      </set>
      <set comment="kpoint 32">
       <r>    4.0949    1.0000 </r>
       <r>    6.2647    1.0000 </r>
       <r>    6.5094    1.0000 </r>
       <r>    6.7088    1.0000 </r>
       <r>    7.5915    1.0000 </r>
       <r>    7.7587    1.0000 </r>
       <r>    8.1061    1.0000 </r>
       <r>    8.4991    1.0000 </r>
       <r>    9.0201    1.0000 </r>
       <r>    9.2271    1.0000 </r>
       <r>    9.6207    1.0000 </r>
       <r>   14.3070    0.0000 </r>
       <r>   19.0999    0.0000 </r>
       <r>   23.1922    0.0000 </r>
       <r>   23.6772    0.0000 </r>
       <r>   29.3857    0.0000 </r>
       <r>   30.1609    0.0000 </r>
       <r>   33.6646    0.0000 </r>
       <r>   34.2687    0.0000 </r>
       <r>   37.5567    0.0000 </r>
       <r>   38.4876    0.0000 </r>
       <r>   40.4229    0.0000 </r>
       <r>   44.2465    0.0000 </r>
       <r>   44.3698    0.0000 </r>
      </set>
      <set comment="kpoint 33">
       <r>    5.1247    1.0000 </r>
       <r>    6.1712    1.0000 </r>
       <r>    6.2611    1.0000 </r>
       <r>    6.7030    1.0000 </r>
       <r>    7.4906    1.0000 </r>
       <r>    7.9079    1.0000 </r>
       <r>    7.9420    1.0000 </r>
       <r>    8.7771    1.0000 </r>
       <r>    9.4392    1.0000 </r>
       <r>    9.4460    1.0000 </r>
       <r>   10.1948    0.9787 </r>
       <r>   15.6610    0.0000 </r>
       <r>   19.5612    0.0000 </r>
       <r>   20.7088    0.0000 </r>
       <r>   22.2750    0.0000 </r>
       <r>   26.6325    0.0000 </r>
       <r>   28.7867    0.0000 </r>
       <r>   30.7443    0.0000 </r>
       <r>   33.1250    0.0000 </r>
       <r>   37.9976    0.0000 </r>
       <r>   39.4849    0.0000 </r>
       <r>   42.4159    0.0000 </r>
       <r>   44.2063    0.0000 </r>
       <r>   46.2644    0.0000 </r>
      </set>
      <set comment="kpoint 34">
       <r>    5.6355    1.0000 </r>
       <r>    6.0301    1.0000 </r>
       <r>    6.1859    1.0000 </r>
       <r>    6.8369    1.0000 </r>
       <r>    7.4624    1.0000 </r>
       <r>    7.8723    1.0000 </r>
       <r>    8.1342    1.0000 </r>
       <r>    9.1585    1.0000 </r>
       <r>    9.4582    1.0000 </r>
       <r>    9.6424    1.0000 </r>
       <r>   11.3792    0.0000 </r>
       <r>   15.7812    0.0000 </r>
       <r>   18.5087    0.0000 </r>
       <r>   21.2295    0.0000 </r>
       <r>   21.6211    0.0000 </r>
       <r>   24.4064    0.0000 </r>
       <r>   27.8112    0.0000 </r>
       <r>   28.1780    0.0000 </r>
       <r>   32.4282    0.0000 </r>
       <r>   37.7270    0.0000 </r>
       <r>   40.6230    0.0000 </r>
       <r>   43.0808    0.0000 </r>
       <r>   46.3171    0.0000 </r>
       <r>   46.8548    0.0000 </r>
      </set>
      <set comment="kpoint 35">
       <r>    5.6674    1.0000 </r>
       <r>    5.9405    1.0000 </r>
       <r>    6.2791    1.0000 </r>
       <r>    6.9165    1.0000 </r>
       <r>    7.3999    1.0000 </r>
       <r>    7.9404    1.0000 </r>
       <r>    8.2243    1.0000 </r>
       <r>    9.4353    1.0000 </r>
       <r>    9.4419    1.0000 </r>
       <r>    9.6203    1.0000 </r>
       <r>   12.6800    0.0000 </r>
       <r>   14.1660    0.0000 </r>
       <r>   19.9908    0.0000 </r>
       <r>   20.3704    0.0000 </r>
       <r>   21.1693    0.0000 </r>
       <r>   24.7041    0.0000 </r>
       <r>   25.9601    0.0000 </r>
       <r>   27.9087    0.0000 </r>
       <r>   32.1812    0.0000 </r>
       <r>   37.6007    0.0000 </r>
       <r>   41.1735    0.0000 </r>
       <r>   43.0947    0.0000 </r>
       <r>   46.2981    0.0000 </r>
       <r>   46.5493    0.0000 </r>
      </set>
      <set comment="kpoint 36">
       <r>    5.8980    1.0000 </r>
       <r>    6.0203    1.0000 </r>
       <r>    6.4420    1.0000 </r>
       <r>    6.5013    1.0000 </r>
       <r>    7.4425    1.0000 </r>
       <r>    7.7203    1.0000 </r>
       <r>    8.0986    1.0000 </r>
       <r>    8.9598    1.0000 </r>
       <r>    9.4117    1.0000 </r>
       <r>    9.6503    1.0000 </r>
       <r>   11.4083    0.0000 </r>
       <r>   16.8615    0.0000 </r>
       <r>   18.7395    0.0000 </r>
       <r>   19.4897    0.0000 </r>
       <r>   21.8921    0.0000 </r>
       <r>   25.8243    0.0000 </r>
       <r>   25.9169    0.0000 </r>
       <r>   29.7097    0.0000 </r>
       <r>   30.3321    0.0000 </r>
       <r>   40.4304    0.0000 </r>
       <r>   41.8618    0.0000 </r>
       <r>   42.8328    0.0000 </r>
       <r>   45.5079    0.0000 </r>
       <r>   46.3507    0.0000 </r>
      </set>
      <set comment="kpoint 37">
       <r>    5.9337    1.0000 </r>
       <r>    6.2467    1.0000 </r>
       <r>    6.3375    1.0000 </r>
       <r>    6.6919    1.0000 </r>
       <r>    7.3932    1.0000 </r>
       <r>    7.6038    1.0000 </r>
       <r>    8.2723    1.0000 </r>
       <r>    9.2260    1.0000 </r>
       <r>    9.3799    1.0000 </r>
       <r>    9.5847    1.0000 </r>
       <r>   13.1233    0.0000 </r>
       <r>   15.6186    0.0000 </r>
       <r>   17.9745    0.0000 </r>
       <r>   20.2535    0.0000 </r>
       <r>   22.0931    0.0000 </r>
       <r>   24.3871    0.0000 </r>
       <r>   25.7823    0.0000 </r>
       <r>   27.3666    0.0000 </r>
       <r>   29.6524    0.0000 </r>
       <r>   41.2786    0.0000 </r>
       <r>   42.9528    0.0000 </r>
       <r>   44.3354    0.0000 </r>
       <r>   45.9551    0.0000 </r>
       <r>   46.8024    0.0000 </r>
      </set>
      <set comment="kpoint 38">
       <r>    6.0346    1.0000 </r>
       <r>    6.3724    1.0000 </r>
       <r>    6.3724    1.0000 </r>
       <r>    6.6551    1.0000 </r>
       <r>    7.4244    1.0000 </r>
       <r>    7.4244    1.0000 </r>
       <r>    8.3501    1.0000 </r>
       <r>    9.3467    1.0000 </r>
       <r>    9.3819    1.0000 </r>
       <r>    9.3819    1.0000 </r>
       <r>   14.9989    0.0000 </r>
       <r>   15.6360    0.0000 </r>
       <r>   15.6360    0.0000 </r>
       <r>   21.7460    0.0000 </r>
       <r>   22.5203    0.0000 </r>
       <r>   22.5203    0.0000 </r>
       <r>   26.4856    0.0000 </r>
       <r>   27.4922    0.0000 </r>
       <r>   27.4922    0.0000 </r>
       <r>   43.0271    0.0000 </r>
       <r>   44.9193    0.0000 </r>
       <r>   44.9193    0.0000 </r>
       <r>   46.2459    0.0000 </r>
       <r>   46.2459    0.0000 </r>
      </set>
      <set comment="kpoint 39">
       <r>    1.9987    1.0000 </r>
       <r>    4.9600    1.0000 </r>
       <r>    7.5363    1.0000 </r>
       <r>    7.5854    1.0000 </r>
       <r>    7.5854    1.0000 </r>
       <r>    7.8537    1.0000 </r>
       <r>    7.8537    1.0000 </r>
       <r>    8.4891    1.0000 </r>
       <r>    8.6741    1.0000 </r>
       <r>    8.6741    1.0000 </r>
       <r>    9.4184    1.0000 </r>
       <r>    9.4184    1.0000 </r>
       <r>   19.7916    0.0000 </r>
       <r>   31.3666    0.0000 </r>
       <r>   32.7235    0.0000 </r>
       <r>   34.3644    0.0000 </r>
       <r>   35.4011    0.0000 </r>
       <r>   35.4011    0.0000 </r>
       <r>   36.3893    0.0000 </r>
       <r>   36.3893    0.0000 </r>
       <r>   39.6544    0.0000 </r>
       <r>   39.6544    0.0000 </r>
       <r>   41.2192    0.0000 </r>
       <r>   41.2192    0.0000 </r>
      </set>
      <set comment="kpoint 40">
       <r>    2.2323    1.0000 </r>
       <r>    5.1348    1.0000 </r>
       <r>    7.4652    1.0000 </r>
       <r>    7.5608    1.0000 </r>
       <r>    7.6045    1.0000 </r>
       <r>    7.6767    1.0000 </r>
       <r>    7.9472    1.0000 </r>
       <r>    8.1994    1.0000 </r>
       <r>    8.6408    1.0000 </r>
       <r>    8.6838    1.0000 </r>
       <r>    9.4335    1.0000 </r>
       <r>   10.0022    1.0000 </r>
       <r>   19.9317    0.0000 </r>
       <r>   30.6997    0.0000 </r>
       <r>   31.7565    0.0000 </r>
       <r>   32.9276    0.0000 </r>
       <r>   33.3302    0.0000 </r>
       <r>   34.6701    0.0000 </r>
       <r>   36.7392    0.0000 </r>
       <r>   37.6345    0.0000 </r>
       <r>   39.3638    0.0000 </r>
       <r>   40.4337    0.0000 </r>
       <r>   40.6208    0.0000 </r>
       <r>   42.7426    0.0000 </r>
      </set>
      <set comment="kpoint 41">
       <r>    2.8987    1.0000 </r>
       <r>    5.5836    1.0000 </r>
       <r>    7.0179    1.0000 </r>
       <r>    7.2606    1.0000 </r>
       <r>    7.5269    1.0000 </r>
       <r>    7.8867    1.0000 </r>
       <r>    8.0058    1.0000 </r>
       <r>    8.2056    1.0000 </r>
       <r>    8.6129    1.0000 </r>
       <r>    8.7440    1.0000 </r>
       <r>    9.4647    1.0000 </r>
       <r>   10.9659    0.0000 </r>
       <r>   20.3645    0.0000 </r>
       <r>   27.1147    0.0000 </r>
       <r>   30.5889    0.0000 </r>
       <r>   31.0457    0.0000 </r>
       <r>   32.4292    0.0000 </r>
       <r>   33.0626    0.0000 </r>
       <r>   35.8294    0.0000 </r>
       <r>   36.2429    0.0000 </r>
       <r>   40.1553    0.0000 </r>
       <r>   41.5338    0.0000 </r>
       <r>   41.6739    0.0000 </r>
       <r>   43.9640    0.0000 </r>
      </set>
      <set comment="kpoint 42">
       <r>    3.8602    1.0000 </r>
       <r>    5.9720    1.0000 </r>
       <r>    6.5224    1.0000 </r>
       <r>    7.1216    1.0000 </r>
       <r>    7.4506    1.0000 </r>
       <r>    7.9810    1.0000 </r>
       <r>    8.0715    1.0000 </r>
       <r>    8.5870    1.0000 </r>
       <r>    8.7937    1.0000 </r>
       <r>    8.8925    1.0000 </r>
       <r>    9.4972    1.0000 </r>
       <r>   12.0126    0.0000 </r>
       <r>   21.0595    0.0000 </r>
       <r>   23.4691    0.0000 </r>
       <r>   27.5894    0.0000 </r>
       <r>   29.0621    0.0000 </r>
       <r>   31.9916    0.0000 </r>
       <r>   32.8363    0.0000 </r>
       <r>   34.6870    0.0000 </r>
       <r>   34.9579    0.0000 </r>
       <r>   37.8908    0.0000 </r>
       <r>   42.1374    0.0000 </r>
       <r>   42.6695    0.0000 </r>
       <r>   46.2453    0.0000 </r>
      </set>
      <set comment="kpoint 43">
       <r>    4.7555    1.0000 </r>
       <r>    5.8777    1.0000 </r>
       <r>    6.3210    1.0000 </r>
       <r>    6.9507    1.0000 </r>
       <r>    7.7564    1.0000 </r>
       <r>    7.9104    1.0000 </r>
       <r>    8.5329    1.0000 </r>
       <r>    8.9959    1.0000 </r>
       <r>    9.1548    1.0000 </r>
       <r>    9.2020    1.0000 </r>
       <r>    9.5468    1.0000 </r>
       <r>   13.1058    0.0000 </r>
       <r>   19.9521    0.0000 </r>
       <r>   22.0562    0.0000 </r>
       <r>   24.8224    0.0000 </r>
       <r>   27.4914    0.0000 </r>
       <r>   30.8710    0.0000 </r>
       <r>   32.7588    0.0000 </r>
       <r>   33.3808    0.0000 </r>
       <r>   33.7351    0.0000 </r>
       <r>   37.1189    0.0000 </r>
       <r>   42.1525    0.0000 </r>
       <r>   42.9057    0.0000 </r>
       <r>   45.9721    0.0000 </r>
      </set>
      <set comment="kpoint 44">
       <r>    5.1330    1.0000 </r>
       <r>    5.6824    1.0000 </r>
       <r>    6.3887    1.0000 </r>
       <r>    6.7314    1.0000 </r>
       <r>    7.8279    1.0000 </r>
       <r>    8.0939    1.0000 </r>
       <r>    9.1859    1.0000 </r>
       <r>    9.2313    1.0000 </r>
       <r>    9.4929    1.0000 </r>
       <r>    9.6493    1.0000 </r>
       <r>   10.0859    1.0000 </r>
       <r>   13.7925    0.0000 </r>
       <r>   17.8842    0.0000 </r>
       <r>   20.7098    0.0000 </r>
       <r>   24.8296    0.0000 </r>
       <r>   26.4628    0.0000 </r>
       <r>   28.9498    0.0000 </r>
       <r>   32.4478    0.0000 </r>
       <r>   32.5002    0.0000 </r>
       <r>   32.8239    0.0000 </r>
       <r>   38.1957    0.0000 </r>
       <r>   41.6995    0.0000 </r>
       <r>   42.2458    0.0000 </r>
       <r>   44.7256    0.0000 </r>
      </set>
      <set comment="kpoint 45">
       <r>    5.1810    1.0000 </r>
       <r>    5.6069    1.0000 </r>
       <r>    6.5239    1.0000 </r>
       <r>    6.5737    1.0000 </r>
       <r>    7.7956    1.0000 </r>
       <r>    8.2025    1.0000 </r>
       <r>    9.2845    1.0000 </r>
       <r>    9.3737    1.0000 </r>
       <r>    9.6350    1.0000 </r>
       <r>    9.7146    1.0000 </r>
       <r>   11.2156    0.0000 </r>
       <r>   13.2210    0.0000 </r>
       <r>   18.4857    0.0000 </r>
       <r>   18.6255    0.0000 </r>
       <r>   26.1016    0.0000 </r>
       <r>   26.3267    0.0000 </r>
       <r>   27.0877    0.0000 </r>
       <r>   32.1876    0.0000 </r>
       <r>   32.3023    0.0000 </r>
       <r>   32.5916    0.0000 </r>
       <r>   39.4172    0.0000 </r>
       <r>   40.8992    0.0000 </r>
       <r>   41.5419    0.0000 </r>
       <r>   44.5741    0.0000 </r>
      </set>
      <set comment="kpoint 46">
       <r>    2.6837    1.0000 </r>
       <r>    5.4535    1.0000 </r>
       <r>    7.1758    1.0000 </r>
       <r>    7.3040    1.0000 </r>
       <r>    7.5517    1.0000 </r>
       <r>    7.8457    1.0000 </r>
       <r>    8.0060    1.0000 </r>
       <r>    8.1221    1.0000 </r>
       <r>    8.6669    1.0000 </r>
       <r>    8.6810    1.0000 </r>
       <r>    9.4544    1.0000 </r>
       <r>   10.7000    0.0000 </r>
       <r>   20.2204    0.0000 </r>
       <r>   28.7781    0.0000 </r>
       <r>   29.6172    0.0000 </r>
       <r>   31.8426    0.0000 </r>
       <r>   32.5843    0.0000 </r>
       <r>   34.3824    0.0000 </r>
       <r>   35.5241    0.0000 </r>
       <r>   36.9926    0.0000 </r>
       <r>   40.3812    0.0000 </r>
       <r>   40.8201    0.0000 </r>
       <r>   42.1940    0.0000 </r>
       <r>   43.0524    0.0000 </r>
      </set>
      <set comment="kpoint 47">
       <r>    3.5114    1.0000 </r>
       <r>    5.9381    1.0000 </r>
       <r>    6.6636    1.0000 </r>
       <r>    7.0758    1.0000 </r>
       <r>    7.4941    1.0000 </r>
       <r>    7.8839    1.0000 </r>
       <r>    8.0095    1.0000 </r>
       <r>    8.4205    1.0000 </r>
       <r>    8.7728    1.0000 </r>
       <r>    8.8313    1.0000 </r>
       <r>    9.4911    1.0000 </r>
       <r>   11.6518    0.0000 </r>
       <r>   20.8142    0.0000 </r>
       <r>   25.3392    0.0000 </r>
       <r>   27.5735    0.0000 </r>
       <r>   29.5197    0.0000 </r>
       <r>   31.5440    0.0000 </r>
       <r>   33.7172    0.0000 </r>
       <r>   34.7657    0.0000 </r>
       <r>   37.7801    0.0000 </r>
       <r>   38.6975    0.0000 </r>
       <r>   39.9005    0.0000 </r>
       <r>   43.3886    0.0000 </r>
       <r>   44.1502    0.0000 </r>
      </set>
      <set comment="kpoint 48">
       <r>    4.4911    1.0000 </r>
       <r>    6.0851    1.0000 </r>
       <r>    6.3449    1.0000 </r>
       <r>    7.0146    1.0000 </r>
       <r>    7.4709    1.0000 </r>
       <r>    7.9703    1.0000 </r>
       <r>    8.0525    1.0000 </r>
       <r>    8.7457    1.0000 </r>
       <r>    9.0863    1.0000 </r>
       <r>    9.1537    1.0000 </r>
       <r>    9.6064    1.0000 </r>
       <r>   12.7340    0.0000 </r>
       <r>   21.3053    0.0000 </r>
       <r>   22.1980    0.0000 </r>
       <r>   25.8357    0.0000 </r>
       <r>   26.6146    0.0000 </r>
       <r>   30.5735    0.0000 </r>
       <r>   32.8247    0.0000 </r>
       <r>   34.5249    0.0000 </r>
       <r>   36.6158    0.0000 </r>
       <r>   37.1914    0.0000 </r>
       <r>   40.2305    0.0000 </r>
       <r>   45.0471    0.0000 </r>
       <r>   45.5580    0.0000 </r>
      </set>
      <set comment="kpoint 49">
       <r>    5.1401    1.0000 </r>
       <r>    5.8763    1.0000 </r>
       <r>    6.3126    1.0000 </r>
       <r>    6.8654    1.0000 </r>
       <r>    7.6536    1.0000 </r>
       <r>    8.0439    1.0000 </r>
       <r>    8.5077    1.0000 </r>
       <r>    9.0597    1.0000 </r>
       <r>    9.3163    1.0000 </r>
       <r>    9.5256    1.0000 </r>
       <r>   10.1231    1.0000 </r>
       <r>   13.8247    0.0000 </r>
       <r>   18.7708    0.0000 </r>
       <r>   21.8972    0.0000 </r>
       <r>   24.2993    0.0000 </r>
       <r>   25.3082    0.0000 </r>
       <r>   29.7413    0.0000 </r>
       <r>   30.5966    0.0000 </r>
       <r>   34.5739    0.0000 </r>
       <r>   35.5210    0.0000 </r>
       <r>   37.1629    0.0000 </r>
       <r>   40.3529    0.0000 </r>
       <r>   44.8614    0.0000 </r>
       <r>   45.8481    0.0000 </r>
      </set>
      <set comment="kpoint 50">
       <r>    5.2758    1.0000 </r>
       <r>    5.7403    1.0000 </r>
       <r>    6.4854    1.0000 </r>
       <r>    6.6740    1.0000 </r>
       <r>    7.6031    1.0000 </r>
       <r>    8.2739    1.0000 </r>
       <r>    8.8569    1.0000 </r>
       <r>    9.2242    1.0000 </r>
       <r>    9.5528    1.0000 </r>
       <r>    9.6965    1.0000 </r>
       <r>   11.3405    0.0000 </r>
       <r>   13.7986    0.0000 </r>
       <r>   17.9686    0.0000 </r>
       <r>   19.7078    0.0000 </r>
       <r>   24.4268    0.0000 </r>
       <r>   25.8644    0.0000 </r>
       <r>   28.2189    0.0000 </r>
       <r>   29.2880    0.0000 </r>
       <r>   34.3584    0.0000 </r>
       <r>   34.9211    0.0000 </r>
       <r>   38.3695    0.0000 </r>
       <r>   39.8311    0.0000 </r>
       <r>   43.3476    0.0000 </r>
       <r>   45.8263    0.0000 </r>
      </set>
      <set comment="kpoint 51">
       <r>    4.3984    1.0000 </r>
       <r>    6.2689    1.0000 </r>
       <r>    6.4223    1.0000 </r>
       <r>    6.7996    1.0000 </r>
       <r>    7.5097    1.0000 </r>
       <r>    7.7389    1.0000 </r>
       <r>    7.9990    1.0000 </r>
       <r>    8.6373    1.0000 </r>
       <r>    9.0719    1.0000 </r>
       <r>    9.1701    1.0000 </r>
       <r>    9.6522    1.0000 </r>
       <r>   12.6236    0.0000 </r>
       <r>   21.5644    0.0000 </r>
       <r>   23.6129    0.0000 </r>
       <r>   24.1732    0.0000 </r>
       <r>   27.9521    0.0000 </r>
       <r>   28.5872    0.0000 </r>
       <r>   33.9342    0.0000 </r>
       <r>   35.7091    0.0000 </r>
       <r>   36.7850    0.0000 </r>
       <r>   38.5611    0.0000 </r>
       <r>   40.2936    0.0000 </r>
       <r>   43.1120    0.0000 </r>
       <r>   43.7195    0.0000 </r>
      </set>
      <set comment="kpoint 52">
       <r>    5.2469    1.0000 </r>
       <r>    6.0703    1.0000 </r>
       <r>    6.3992    1.0000 </r>
       <r>    6.8572    1.0000 </r>
       <r>    7.4910    1.0000 </r>
       <r>    7.8061    1.0000 </r>
       <r>    7.9966    1.0000 </r>
       <r>    8.8483    1.0000 </r>
       <r>    9.2035    1.0000 </r>
       <r>    9.5572    1.0000 </r>
       <r>   10.3051    0.1372 </r>
       <r>   13.8457    0.0000 </r>
       <r>   20.4040    0.0000 </r>
       <r>   22.4185    0.0000 </r>
       <r>   22.8510    0.0000 </r>
       <r>   25.3832    0.0000 </r>
       <r>   27.2739    0.0000 </r>
       <r>   32.5964    0.0000 </r>
       <r>   34.7948    0.0000 </r>
       <r>   36.6868    0.0000 </r>
       <r>   38.7031    0.0000 </r>
       <r>   41.4084    0.0000 </r>
       <r>   43.7475    0.0000 </r>
       <r>   45.1412    0.0000 </r>
      </set>
      <set comment="kpoint 53">
       <r>    5.5476    1.0000 </r>
       <r>    6.0875    1.0000 </r>
       <r>    6.3393    1.0000 </r>
       <r>    6.8464    1.0000 </r>
       <r>    7.3963    1.0000 </r>
       <r>    8.0160    1.0000 </r>
[...]
       </set>
       <set comment="band 12">
        <r>  0.0030  0.0265  0.0633  0.0772  0.0342  0.0235  0.0048  0.0266  0.0805 </r>
        <r>  0.0061  0.0537  0.0313  0.1561  0.0691  0.0116  0.0097  0.0131  0.1627 </r>
       </set>
       <set comment="band 13">
        <r>  0.1849  0.0260  0.0122  0.0167  0.0971  0.0230  0.0088  0.0680  0.0341 </r>
        <r>  0.1353  0.0190  0.0167  0.0122  0.0711  0.0314  0.0065  0.0929  0.0249 </r>
       </set>
       <set comment="band 14">
        <r>  0.1353  0.0190  0.0167  0.0122  0.0711  0.0314  0.0065  0.0929  0.0249 </r>
        <r>  0.1849  0.0260  0.0122  0.0167  0.0971  0.0230  0.0088  0.0680  0.0341 </r>
       </set>
       <set comment="band 15">
        <r>  0.1510  0.2110  0.0012  0.0704  0.0717  0.0069  0.0367  0.0027  0.0239 </r>
        <r>  0.0095  0.0133  0.0193  0.0044  0.0045  0.1104  0.0023  0.0434  0.0015 </r>
       </set>
       <set comment="band 16">
        <r>  0.0095  0.0133  0.0193  0.0044  0.0045  0.1104  0.0023  0.0434  0.0015 </r>
        <r>  0.1510  0.2110  0.0012  0.0704  0.0717  0.0069  0.0367  0.0027  0.0239 </r>
       </set>
       <set comment="band 17">
        <r>  0.0011  0.0104  0.1777  0.0301  0.0031  0.0232  0.0024  0.0461  0.0047 </r>
        <r>  0.0023  0.0212  0.0874  0.0611  0.0064  0.0114  0.0048  0.0227  0.0096 </r>
       </set>
       <set comment="band 18">
        <r>  0.0023  0.0212  0.0874  0.0611  0.0064  0.0114  0.0048  0.0227  0.0096 </r>
        <r>  0.0011  0.0104  0.1777  0.0301  0.0031  0.0232  0.0024  0.0461  0.0047 </r>
       </set>
       <set comment="band 19">
        <r>  0.0053  0.0001  0.0307  0.0002  0.0147  0.0834  0.0304  0.2048  0.0049 </r>
        <r>  0.0438  0.0009  0.0037  0.0016  0.1213  0.0101  0.2505  0.0249  0.0405 </r>
       </set>
       <set comment="band 20">
        <r>  0.0438  0.0009  0.0037  0.0016  0.1213  0.0101  0.2505  0.0249  0.0405 </r>
        <r>  0.0053  0.0001  0.0307  0.0002  0.0147  0.0834  0.0304  0.2048  0.0049 </r>
       </set>
       <set comment="band 21">
        <r>  0.0215  0.1529  0.0104  0.0516  0.0112  0.0007  0.0440  0.0006  0.0044 </r>
        <r>  0.0013  0.0090  0.1753  0.0031  0.0007  0.0112  0.0026  0.0095  0.0003 </r>
       </set>
       <set comment="band 22">
        <r>  0.0013  0.0090  0.1753  0.0031  0.0007  0.0112  0.0026  0.0095  0.0003 </r>
        <r>  0.0215  0.1529  0.0104  0.0516  0.0112  0.0007  0.0440  0.0006  0.0044 </r>
       </set>
       <set comment="band 23">
        <r>  0.1586  0.0051  0.0004  0.0019  0.1051  0.0820  0.0468  0.0318  0.0350 </r>
        <r>  0.0700  0.0023  0.0010  0.0008  0.0464  0.1859  0.0207  0.0721  0.0155 </r>
       </set>
       <set comment="band 24">
        <r>  0.0700  0.0023  0.0010  0.0008  0.0464  0.1859  0.0207  0.0721  0.0155 </r>
        <r>  0.1586  0.0051  0.0004  0.0019  0.1051  0.0820  0.0468  0.0318  0.0350 </r>
       </set>
      </set>
      <set comment="kpoint 93">
       <set comment="band 1">
        <r>  0.0530  0.0049  0.0127  0.0303  0.0205  0.0002  0.0238  0.2502  0.0303 </r>
        <r>  0.0614  0.0057  0.0110  0.0351  0.0237  0.0002  0.0276  0.2160  0.0351 </r>
       </set>
       <set comment="band 2">
        <r>  0.0614  0.0057  0.0110  0.0351  0.0237  0.0002  0.0276  0.2160  0.0351 </r>
        <r>  0.0530  0.0049  0.0127  0.0303  0.0205  0.0002  0.0238  0.2502  0.0303 </r>
       </set>
       <set comment="band 3">
        <r>  0.0226  0.0558  0.0022  0.0124  0.6134  0.0047  0.0064  0.0000  0.0373 </r>
        <r>  0.0016  0.0039  0.0312  0.0009  0.0425  0.0680  0.0004  0.0001  0.0026 </r>
       </set>
       <set comment="band 4">
        <r>  0.0016  0.0039  0.0312  0.0009  0.0425  0.0680  0.0004  0.0001  0.0026 </r>
        <r>  0.0226  0.0558  0.0022  0.0124  0.6134  0.0047  0.0064  0.0000  0.0373 </r>
       </set>
       <set comment="band 5">
        <r>  0.0011  0.0000  0.0024  0.0747  0.0015  0.0610  0.2639  0.0065  0.1285 </r>
        <r>  0.0004  0.0000  0.0075  0.0237  0.0005  0.1921  0.0838  0.0205  0.0408 </r>
       </set>
       <set comment="band 6">
        <r>  0.0004  0.0000  0.0075  0.0237  0.0005  0.1921  0.0838  0.0205  0.0408 </r>
        <r>  0.0011  0.0000  0.0024  0.0747  0.0015  0.0610  0.2639  0.0065  0.1285 </r>
       </set>
       <set comment="band 7">
        <r>  0.0031  0.0000  0.0000  0.0004  0.0410  0.3325  0.0134  0.0607  0.0661 </r>
        <r>  0.0063  0.0000  0.0000  0.0009  0.0839  0.1626  0.0275  0.0297  0.1352 </r>
       </set>
       <set comment="band 8">
        <r>  0.0063  0.0000  0.0000  0.0009  0.0839  0.1626  0.0275  0.0297  0.1352 </r>
        <r>  0.0031  0.0000  0.0000  0.0004  0.0410  0.3325  0.0134  0.0607  0.0661 </r>
       </set>
       <set comment="band 9">
        <r>  0.0000  0.0001  0.0001  0.0030  0.0089  0.0034  0.4890  0.0078  0.1578 </r>
        <r>  0.0000  0.0000  0.0031  0.0001  0.0003  0.0875  0.0189  0.2031  0.0061 </r>
       </set>
       <set comment="band 10">
        <r>  0.0000  0.0000  0.0031  0.0001  0.0003  0.0875  0.0189  0.2031  0.0061 </r>
        <r>  0.0000  0.0001  0.0001  0.0030  0.0089  0.0034  0.4890  0.0078  0.1578 </r>
       </set>
       <set comment="band 11">
        <r>  0.0501  0.0022  0.0276  0.1165  0.0124  0.0026  0.0008  0.0543  0.2361 </r>
        <r>  0.0293  0.0013  0.0473  0.0681  0.0073  0.0045  0.0005  0.0928  0.1381 </r>
       </set>
       <set comment="band 12">
        <r>  0.0293  0.0013  0.0473  0.0681  0.0073  0.0045  0.0005  0.0928  0.1381 </r>
        <r>  0.0501  0.0022  0.0276  0.1165  0.0124  0.0026  0.0008  0.0543  0.2361 </r>
       </set>
       <set comment="band 13">
        <r>  0.0004  0.2931  0.0037  0.0071  0.3037  0.0024  0.0019  0.0039  0.0013 </r>
        <r>  0.0000  0.0176  0.0622  0.0004  0.0183  0.0391  0.0001  0.0649  0.0001 </r>
       </set>
       <set comment="band 14">
        <r>  0.0000  0.0176  0.0622  0.0004  0.0183  0.0391  0.0001  0.0649  0.0001 </r>
        <r>  0.0004  0.2931  0.0037  0.0071  0.3037  0.0024  0.0019  0.0039  0.0013 </r>
       </set>
       <set comment="band 15">
        <r>  0.1099  0.0003  0.0032  0.0490  0.0003  0.0879  0.0182  0.0619  0.0000 </r>
        <r>  0.2639  0.0008  0.0013  0.1178  0.0007  0.0366  0.0437  0.0258  0.0001 </r>
       </set>
       <set comment="band 16">
        <r>  0.2639  0.0008  0.0013  0.1178  0.0007  0.0366  0.0437  0.0258  0.0001 </r>
        <r>  0.1099  0.0003  0.0032  0.0490  0.0003  0.0879  0.0182  0.0619  0.0000 </r>
       </set>
       <set comment="band 17">
        <r>  0.0039  0.0000  0.2393  0.0063  0.0002  0.0263  0.0082  0.0871  0.0022 </r>
        <r>  0.0406  0.0000  0.0230  0.0656  0.0023  0.0025  0.0847  0.0084  0.0232 </r>
       </set>
       <set comment="band 18">
        <r>  0.0406  0.0000  0.0230  0.0656  0.0023  0.0025  0.0847  0.0084  0.0232 </r>
        <r>  0.0039  0.0000  0.2393  0.0063  0.0002  0.0263  0.0082  0.0871  0.0022 </r>
       </set>
       <set comment="band 19">
        <r>  0.0084  0.0631  0.0000  0.0150  0.1139  0.0000  0.0580  0.0000  0.0133 </r>
        <r>  0.0000  0.0000  0.0877  0.0000  0.0000  0.1222  0.0000  0.1002  0.0000 </r>
       </set>
       <set comment="band 20">
        <r>  0.0000  0.0000  0.0877  0.0000  0.0000  0.1222  0.0000  0.1002  0.0000 </r>
        <r>  0.0084  0.0631  0.0000  0.0150  0.1139  0.0000  0.0580  0.0000  0.0133 </r>
       </set>
       <set comment="band 21">
        <r>  0.0222  0.0058  0.0242  0.0350  0.0270  0.0019  0.1835  0.0615  0.0261 </r>
        <r>  0.0099  0.0026  0.0546  0.0156  0.0120  0.0042  0.0815  0.1385  0.0116 </r>
       </set>
       <set comment="band 22">
        <r>  0.0099  0.0026  0.0546  0.0156  0.0120  0.0042  0.0815  0.1385  0.0116 </r>
        <r>  0.0222  0.0058  0.0242  0.0350  0.0270  0.0019  0.1835  0.0615  0.0261 </r>
       </set>
       <set comment="band 23">
        <r>  0.0009  0.1790  0.0196  0.0008  0.1346  0.0098  0.0000  0.0045  0.0000 </r>
        <r>  0.0004  0.0893  0.0393  0.0004  0.0671  0.0196  0.0000  0.0091  0.0000 </r>
       </set>
       <set comment="band 24">
        <r>  0.0004  0.0893  0.0393  0.0004  0.0671  0.0196  0.0000  0.0091  0.0000 </r>
        <r>  0.0009  0.1790  0.0196  0.0008  0.1346  0.0098  0.0000  0.0045  0.0000 </r>
       </set>
      </set>
      <set comment="kpoint 94">
       <set comment="band 1">
        <r>  0.0431  0.0170  0.0012  0.0247  0.0757  0.0136  0.0489  0.1474  0.0423 </r>
        <r>  0.0212  0.0084  0.0025  0.0122  0.0373  0.0276  0.0241  0.2989  0.0208 </r>
       </set>
       <set comment="band 2">
        <r>  0.0212  0.0084  0.0025  0.0122  0.0373  0.0276  0.0241  0.2989  0.0208 </r>
        <r>  0.0431  0.0170  0.0012  0.0247  0.0757  0.0136  0.0489  0.1474  0.0423 </r>
       </set>
       <set comment="band 3">
        <r>  0.0100  0.0307  0.0029  0.0014  0.2020  0.0930  0.1087  0.0280  0.0111 </r>
        <r>  0.0061  0.0186  0.0048  0.0008  0.1222  0.1537  0.0658  0.0462  0.0067 </r>
       </set>
       <set comment="band 4">
        <r>  0.0061  0.0186  0.0048  0.0008  0.1222  0.1537  0.0658  0.0462  0.0067 </r>
        <r>  0.0100  0.0307  0.0029  0.0014  0.2020  0.0930  0.1087  0.0280  0.0111 </r>
       </set>
       <set comment="band 5">
        <r>  0.0062  0.0195  0.0064  0.0977  0.1575  0.0273  0.0482  0.0010  0.2346 </r>
        <r>  0.0012  0.0037  0.0341  0.0183  0.0296  0.1452  0.0090  0.0051  0.0440 </r>
       </set>
       <set comment="band 6">
        <r>  0.0012  0.0037  0.0341  0.0183  0.0296  0.1452  0.0090  0.0051  0.0440 </r>
        <r>  0.0062  0.0195  0.0064  0.0977  0.1575  0.0273  0.0482  0.0010  0.2346 </r>
       </set>
       <set comment="band 7">
        <r>  0.0018  0.0014  0.0006  0.0062  0.0921  0.1433  0.0119  0.0584  0.1685 </r>
        <r>  0.0014  0.0011  0.0008  0.0049  0.0735  0.1797  0.0095  0.0732  0.1344 </r>
       </set>
       <set comment="band 8">
        <r>  0.0014  0.0011  0.0008  0.0049  0.0735  0.1797  0.0095  0.0732  0.1344 </r>
        <r>  0.0018  0.0014  0.0006  0.0062  0.0921  0.1433  0.0119  0.0584  0.1685 </r>
       </set>
       <set comment="band 9">
        <r>  0.0010  0.0001  0.0003  0.0012  0.0074  0.0290  0.4603  0.0502  0.0358 </r>
        <r>  0.0004  0.0000  0.0008  0.0005  0.0028  0.0766  0.1742  0.1327  0.0136 </r>
       </set>
       <set comment="band 10">
        <r>  0.0004  0.0000  0.0008  0.0005  0.0028  0.0766  0.1742  0.1327  0.0136 </r>
        <r>  0.0010  0.0001  0.0003  0.0012  0.0074  0.0290  0.4603  0.0502  0.0358 </r>
       </set>
       <set comment="band 11">
        <r>  0.0192  0.0155  0.0481  0.1441  0.0225  0.0046  0.0009  0.0294  0.1717 </r>
        <r>  0.0156  0.0126  0.0591  0.1174  0.0183  0.0056  0.0007  0.0361  0.1399 </r>
       </set>
       <set comment="band 12">
        <r>  0.0156  0.0126  0.0591  0.1174  0.0183  0.0056  0.0007  0.0361  0.1399 </r>
        <r>  0.0192  0.0155  0.0481  0.1441  0.0225  0.0046  0.0009  0.0294  0.1717 </r>
       </set>
       <set comment="band 13">
        <r>  0.0279  0.0456  0.0317  0.0035  0.0507  0.0444  0.0015  0.0871  0.0033 </r>
        <r>  0.1067  0.1743  0.0083  0.0133  0.1939  0.0116  0.0058  0.0228  0.0125 </r>
       </set>
       <set comment="band 14">
        <r>  0.1067  0.1743  0.0083  0.0133  0.1939  0.0116  0.0058  0.0228  0.0125 </r>
        <r>  0.0279  0.0456  0.0317  0.0035  0.0507  0.0444  0.0015  0.0871  0.0033 </r>
       </set>
       <set comment="band 15">
        <r>  0.0449  0.0113  0.0114  0.0090  0.0055  0.1159  0.0055  0.0648  0.0008 </r>
        <r>  0.3058  0.0767  0.0017  0.0609  0.0378  0.0170  0.0374  0.0095  0.0054 </r>
       </set>
       <set comment="band 16">
        <r>  0.3058  0.0767  0.0017  0.0609  0.0378  0.0170  0.0374  0.0095  0.0054 </r>
        <r>  0.0449  0.0113  0.0114  0.0090  0.0055  0.1159  0.0055  0.0648  0.0008 </r>
       </set>
       <set comment="band 17">
        <r>  0.0038  0.0027  0.1744  0.0329  0.0014  0.0293  0.0087  0.0629  0.0119 </r>
        <r>  0.0076  0.0053  0.0870  0.0660  0.0028  0.0146  0.0174  0.0314  0.0239 </r>
       </set>
       <set comment="band 18">
        <r>  0.0076  0.0053  0.0870  0.0660  0.0028  0.0146  0.0174  0.0314  0.0239 </r>
        <r>  0.0038  0.0027  0.1744  0.0329  0.0014  0.0293  0.0087  0.0629  0.0119 </r>
       </set>
       <set comment="band 19">
        <r>  0.0150  0.0512  0.0373  0.0013  0.0725  0.0287  0.0481  0.0434  0.0069 </r>
        <r>  0.0053  0.0183  0.1043  0.0005  0.0259  0.0803  0.0172  0.1215  0.0025 </r>
       </set>
       <set comment="band 20">
        <r>  0.0053  0.0183  0.1043  0.0005  0.0259  0.0803  0.0172  0.1215  0.0025 </r>
        <r>  0.0150  0.0512  0.0373  0.0013  0.0725  0.0287  0.0481  0.0434  0.0069 </r>
       </set>
       <set comment="band 21">
        <r>  0.0297  0.0202  0.0197  0.0166  0.0013  0.0276  0.1858  0.0386  0.0038 </r>
        <r>  0.0229  0.0156  0.0256  0.0128  0.0010  0.0358  0.1433  0.0501  0.0029 </r>
       </set>
       <set comment="band 22">
        <r>  0.0229  0.0156  0.0256  0.0128  0.0010  0.0358  0.1433  0.0501  0.0029 </r>
        <r>  0.0297  0.0202  0.0197  0.0166  0.0013  0.0276  0.1858  0.0386  0.0038 </r>
       </set>
       <set comment="band 23">
        <r>  0.0721  0.0794  0.0159  0.0047  0.1292  0.0549  0.0023  0.0230  0.0208 </r>
        <r>  0.0634  0.0699  0.0180  0.0042  0.1137  0.0624  0.0020  0.0261  0.0183 </r>
       </set>
       <set comment="band 24">
        <r>  0.0634  0.0699  0.0180  0.0042  0.1137  0.0624  0.0020  0.0261  0.0183 </r>
        <r>  0.0721  0.0794  0.0159  0.0047  0.1292  0.0549  0.0023  0.0230  0.0208 </r>
       </set>
      </set>
      <set comment="kpoint 95">
       <set comment="band 1">
        <r>  0.0000  0.0269  0.0000  0.0269  0.0625  0.1218  0.0000  0.1218  0.0625 </r>
        <r>  0.0000  0.0371  0.0000  0.0371  0.0864  0.0881  0.0000  0.0881  0.0864 </r>
       </set>
       <set comment="band 2">
        <r>  0.0000  0.0371  0.0000  0.0371  0.0864  0.0881  0.0000  0.0881  0.0864 </r>
        <r>  0.0000  0.0269  0.0000  0.0269  0.0625  0.1218  0.0000  0.1218  0.0625 </r>
       </set>
       <set comment="band 3">
        <r>  0.0111  0.0000  0.0000  0.0000  0.0000  0.2472  0.0426  0.2472  0.0000 </r>
        <r>  0.0581  0.0000  0.0000  0.0000  0.0000  0.0471  0.2237  0.0471  0.0000 </r>
       </set>
       <set comment="band 4">
        <r>  0.0581  0.0000  0.0000  0.0000  0.0000  0.0471  0.2237  0.0471  0.0000 </r>
        <r>  0.0111  0.0000  0.0000  0.0000  0.0000  0.2472  0.0426  0.2472  0.0000 </r>
       </set>
       <set comment="band 5">
        <r>  0.0000  0.0058  0.0437  0.0058  0.0298  0.0000  0.0000  0.0000  0.0298 </r>
        <r>  0.0000  0.0633  0.0040  0.0633  0.3271  0.0000  0.0000  0.0000  0.3271 </r>
       </set>
       <set comment="band 6">
        <r>  0.0000  0.0633  0.0040  0.0633  0.3271  0.0000  0.0000  0.0000  0.3271 </r>
        <r>  0.0000  0.0058  0.0437  0.0058  0.0298  0.0000  0.0000  0.0000  0.0298 </r>
       </set>
       <set comment="band 7">
        <r>  0.0000  0.0031  0.0000  0.0031  0.2107  0.0408  0.0000  0.0408  0.2107 </r>
        <r>  0.0000  0.0007  0.0000  0.0007  0.0479  0.1792  0.0000  0.1792  0.0479 </r>
       </set>
       <set comment="band 8">
        <r>  0.0000  0.0007  0.0000  0.0007  0.0479  0.1792  0.0000  0.1792  0.0479 </r>
        <r>  0.0000  0.0031  0.0000  0.0031  0.2107  0.0408  0.0000  0.0408  0.2107 </r>
       </set>
       <set comment="band 9">
        <r>  0.0036  0.0000  0.0000  0.0000  0.0000  0.0059  0.6678  0.0059  0.0000 </r>
        <r>  0.0002  0.0000  0.0000  0.0000  0.0000  0.1366  0.0291  0.1366  0.0000 </r>
       </set>
       <set comment="band 10">
        <r>  0.0002  0.0000  0.0000  0.0000  0.0000  0.1366  0.0291  0.1366  0.0000 </r>
        <r>  0.0036  0.0000  0.0000  0.0000  0.0000  0.0059  0.6678  0.0059  0.0000 </r>
       </set>
       <set comment="band 11">
        <r>  0.0000  0.0198  0.1478  0.0198  0.0219  0.0000  0.0000  0.0000  0.0219 </r>
        <r>  0.0000  0.1444  0.0202  0.1444  0.1600  0.0000  0.0000  0.0000  0.1600 </r>
       </set>
       <set comment="band 12">
        <r>  0.0000  0.1444  0.0202  0.1444  0.1600  0.0000  0.0000  0.0000  0.1600 </r>
        <r>  0.0000  0.0198  0.1478  0.0198  0.0219  0.0000  0.0000  0.0000  0.0219 </r>
       </set>
       <set comment="band 13">
        <r>  0.0000  0.1076  0.0000  0.1076  0.0829  0.0364  0.0000  0.0364  0.0829 </r>
        <r>  0.0000  0.0711  0.0000  0.0711  0.0547  0.0551  0.0000  0.0551  0.0547 </r>
       </set>
       <set comment="band 14">
        <r>  0.0000  0.0711  0.0000  0.0711  0.0547  0.0551  0.0000  0.0551  0.0547 </r>
        <r>  0.0000  0.1076  0.0000  0.1076  0.0829  0.0364  0.0000  0.0364  0.0829 </r>
       </set>
       <set comment="band 15">
        <r>  0.2380  0.0000  0.0000  0.0000  0.0000  0.0734  0.0202  0.0734  0.0000 </r>
        <r>  0.3073  0.0000  0.0000  0.0000  0.0000  0.0568  0.0260  0.0568  0.0000 </r>
       </set>
       <set comment="band 16">
        <r>  0.3073  0.0000  0.0000  0.0000  0.0000  0.0568  0.0260  0.0568  0.0000 </r>
        <r>  0.2380  0.0000  0.0000  0.0000  0.0000  0.0734  0.0202  0.0734  0.0000 </r>
       </set>
       <set comment="band 17">
        <r>  0.0000  0.0324  0.1828  0.0324  0.0250  0.0000  0.0000  0.0000  0.0250 </r>
        <r>  0.0000  0.0226  0.2627  0.0226  0.0174  0.0000  0.0000  0.0000  0.0174 </r>
       </set>
       <set comment="band 18">
        <r>  0.0000  0.0226  0.2627  0.0226  0.0174  0.0000  0.0000  0.0000  0.0174 </r>
        <r>  0.0000  0.0324  0.1828  0.0324  0.0250  0.0000  0.0000  0.0000  0.0250 </r>
       </set>
       <set comment="band 19">
        <r>  0.0000  0.0201  0.0000  0.0201  0.0084  0.1282  0.0000  0.1282  0.0084 </r>
        <r>  0.0000  0.0370  0.0000  0.0370  0.0155  0.0697  0.0000  0.0697  0.0155 </r>
       </set>
       <set comment="band 20">
        <r>  0.0000  0.0370  0.0000  0.0370  0.0155  0.0697  0.0000  0.0697  0.0155 </r>
        <r>  0.0000  0.0201  0.0000  0.0201  0.0084  0.1282  0.0000  0.1282  0.0084 </r>
       </set>
       <set comment="band 21">
        <r>  0.0810  0.0000  0.0000  0.0000  0.0000  0.0225  0.3395  0.0225  0.0000 </r>
        <r>  0.0227  0.0000  0.0000  0.0000  0.0000  0.0803  0.0952  0.0803  0.0000 </r>
       </set>
       <set comment="band 22">
        <r>  0.0227  0.0000  0.0000  0.0000  0.0000  0.0803  0.0952  0.0803  0.0000 </r>
        <r>  0.0810  0.0000  0.0000  0.0000  0.0000  0.0225  0.3395  0.0225  0.0000 </r>
       </set>
       <set comment="band 23">
        <r>  0.0000  0.0519  0.0000  0.0519  0.1284  0.0257  0.0000  0.0257  0.1284 </r>
        <r>  0.0000  0.0295  0.0000  0.0295  0.0729  0.0453  0.0000  0.0453  0.0729 </r>
       </set>
       <set comment="band 24">
        <r>  0.0000  0.0295  0.0000  0.0295  0.0729  0.0453  0.0000  0.0453  0.0730 </r>
        <r>  0.0000  0.0519  0.0000  0.0519  0.1284  0.0257  0.0000  0.0257  0.1284 </r>
       </set>
      </set>
     </set>
    </set>
   </array>
  </projected>
 </calculation>
 <structure name="finalpos" >
  <crystal>
   <varray name="basis" >
    <v>       1.24613780      -2.15837399       0.00000000 </v>
    <v>       1.24613780       2.15837399       0.00000000 </v>
    <v>       0.00000000       0.00000000       4.02015843 </v>
   </varray>
   <i name="volume">     21.62548890 </i>
   <varray name="rec_basis" >
    <v>       0.40123973      -0.23165587       0.00000000 </v>
    <v>       0.40123973       0.23165587       0.00000000 </v>
    <v>       0.00000000       0.00000000       0.24874642 </v>
   </varray>
  </crystal>
  <varray name="positions" >
   <v>       0.33333333       0.66666667       0.25000000 </v>
   <v>       0.66666667       0.33333333       0.75000000 </v>
  </varray>
 </structure>
</modeling>
