Pt-hcc                                  
   1.00000000000000     
     2.670383    0.000000    0.000000
    -1.335191    2.312619    0.000000
     0.000000    0.000000    4.626376
   Pt
     2
Direct
  0.000000  0.000000  0.000000
  0.333333  0.666667  0.500000
 
   36   36   64
  250.16      249.80      248.00      242.87      232.19      214.45      189.64      159.54      127.30      96.529    
  70.200      49.943      35.828      26.688      20.764      16.914      14.593      13.376      13.000      13.376    
  14.593      16.914      20.764      26.688      35.828      49.943      70.200      96.529      127.30      159.54    
  189.64      214.45      232.19      242.87      248.00      249.80      249.80      249.80      248.71      245.20    
  237.17      222.73      201.13      173.31      141.83      110.16      81.635      58.557      41.714      30.467    
  23.253      18.498      15.509      13.803      13.038      13.038      13.803      15.509      18.498      23.253    
  30.467      41.714      58.557      81.635      110.16      141.83      173.31      201.13      222.73      237.17    
  245.20      248.71      248.00      248.72      248.00      245.20      238.70      226.63      207.85      182.60    
  152.74      121.34      91.775      66.745      47.644      34.399      25.804      20.171      16.504      14.293    
  13.133      12.773      13.133      14.293      16.504      20.171      25.804      34.399      47.644      66.745    
  91.775      121.34      152.74      182.60      207.85      226.63      238.70      245.20      242.87      245.22    
  245.22      242.87      237.17      226.63      210.05      187.23      159.45      129.23      99.702      73.715    
  53.070      38.195      28.296      21.833      17.528      14.822      13.275      12.578      12.578      13.275    
  14.822      17.528      21.833      28.296      38.195      53.070      73.715      99.702      129.23      159.45    
  187.23      210.05      226.63      237.17      232.19      237.21      238.75      237.21      232.19      222.73    
  207.85      187.23      161.71      133.29      104.73      78.779      57.430      41.491      30.559      23.368    
  18.514      15.356      13.447      12.442      12.130      12.442      13.447      15.356      18.514      23.368    
  30.559      41.491      57.430      78.779      104.73      133.29      161.71      187.23      207.85      222.73    
  214.45      222.77      226.70      226.70      222.77      214.45      201.13      182.60      159.45      133.29    
  106.45      81.440      60.254      43.929      32.386      24.654      19.388      15.856      13.630      12.351    
  11.772      11.772      12.351      13.630      15.856      19.388      24.654      32.386      43.929      60.254    
  81.440      106.45      133.29      159.45      182.60      201.13      189.64      201.17      207.92      210.13    
  207.92      201.17      189.64      173.31      152.74      129.23      104.73      81.440      61.232      45.225    
  33.576      25.587      20.076      16.279      13.802      12.294      11.493      11.243      11.493      12.294    
  13.802      16.279      20.076      25.587      33.576      45.225      61.232      81.440      104.73      129.23    
  152.74      173.31      159.54      173.33      182.64      187.30      187.30      182.64      173.33      159.54    
  141.83      121.34      99.702      78.779      60.254      45.225      33.990      26.079      20.517      16.587    
  13.943      12.261      11.282      10.834      10.834      11.282      12.261      13.943      16.587      20.517    
  26.079      33.990      45.225      60.254      78.779      99.702      121.34      141.83      127.30      141.83    
  152.75      159.47      161.74      159.47      152.75      141.83      127.30      110.16      91.775      73.715    
  57.430      43.929      33.576      26.079      20.669      16.749      14.035      12.243      11.133      10.534    
  10.345      10.534      11.133      12.243      14.035      16.749      20.669      26.079      33.576      43.929    
  57.430      73.715      91.775      110.16      96.529      110.13      121.31      129.20      133.26      133.26    
  129.20      121.31      110.13      96.529      81.635      66.745      53.070      41.491      32.386      25.587    
  20.517      16.749      14.067      12.235      11.044      10.334      10.004      10.004      10.334      11.044    
  12.235      14.067      16.749      20.517      25.587      32.386      41.491      53.070      66.745      81.635    
  70.200      81.593      91.704      99.616      104.64      106.36      104.64      99.616      91.704      81.593    
  70.200      58.557      47.644      38.195      30.559      24.654      20.076      16.587      14.035      12.235    
  11.014      10.235      9.8025      9.6643      9.8025      10.235      11.014      12.235      14.035      16.587    
  20.076      24.654      30.559      38.195      47.644      58.557      49.943      58.507      66.652      73.591    
  78.635      81.287      81.287      78.635      73.591      66.652      58.507      49.943      41.714      34.399    
  28.296      23.368      19.388      16.279      13.943      12.243      11.044      10.235      9.7356      9.4977    
  9.4977      9.7356      10.235      11.044      12.243      13.943      16.279      19.388      23.368      28.296    
  34.399      41.714      35.828      41.663      47.545      52.928      57.257      60.062      61.033      60.062    
  57.257      52.928      47.545      41.663      35.828      30.467      25.805      21.834      18.514      15.856    
  13.802      12.261      11.133      10.334      9.8025      9.4977      9.3982      9.4977      9.8025      10.334    
  11.133      12.261      13.802      15.856      18.514      21.833      25.804      30.467      26.688      30.422    
  34.307      38.057      41.314      43.725      45.007      45.007      43.725      41.314      38.057      34.307    
  30.422      26.688      23.253      20.171      17.528      15.356      13.630      12.294      11.282      10.534    
  10.004      9.6643      9.4977      9.4977      9.6643      10.004      10.534      11.282      12.294      13.630    
  15.356      17.528      20.171      23.253      20.764      23.216      25.726      28.175      30.399      32.194    
  33.365      33.772      33.365      32.194      30.399      28.175      25.726      23.216      20.764      18.498    
  16.505      14.822      13.447      12.351      11.493      10.834      10.345      10.004      9.8025      9.7356    
  9.8025      10.004      10.345      10.834      11.493      12.351      13.447      14.822      16.504      18.498    
  16.914      18.470      20.109      21.736      23.235      24.491      25.402      25.883      25.883      25.402    
  24.491      23.235      21.736      20.109      18.470      16.914      15.509      14.293      13.274      12.442    
  11.772      11.243      10.834      10.534      10.334      10.235      10.235      10.334      10.534      10.834    
  11.243      11.772      12.442      13.275      14.293      15.509      14.593      15.487      16.457      17.453    
  18.410      19.258      19.926      20.353      20.500      20.353      19.926      19.258      18.410      17.453    
  16.457      15.487      14.593      13.803      13.133      12.578      12.130      11.772      11.493      11.282    
  11.133      11.044      11.014      11.044      11.133      11.282      11.493      11.772      12.130      12.578    
  13.133      13.803      13.376      13.786      14.256      14.764      15.277      15.757      16.163      16.459    
  16.614      16.614      16.459      16.163      15.757      15.277      14.764      14.256      13.786      13.376    
  13.037      12.773      12.578      12.442      12.351      12.294      12.261      12.243      12.235      12.235    
  12.243      12.261      12.294      12.351      12.442      12.578      12.773      13.038      13.000      13.022    
  13.102      13.229      13.386      13.555      13.716      13.847      13.933      13.963      13.933      13.847    
  13.716      13.555      13.386      13.229      13.102      13.022      13.000      13.037      13.133      13.274    
  13.447      13.630      13.802      13.943      14.035      14.067      14.035      13.943      13.802      13.630    
  13.447      13.275      13.133      13.038      13.376      13.022      12.745      12.539      12.392      12.293    
  12.229      12.190      12.169      12.160      12.160      12.169      12.190      12.229      12.293      12.392    
  12.538      12.745      13.022      13.376      13.803      14.293      14.822      15.356      15.856      16.279    
  16.587      16.749      16.749      16.587      16.279      15.856      15.356      14.822      14.293      13.803    
  14.593      13.786      13.102      12.539      12.084      11.722      11.441      11.229      11.079      10.991    
  10.961      10.991      11.079      11.229      11.441      11.722      12.084      12.538      13.102      13.786    
  14.593      15.509      16.505      17.528      18.514      19.388      20.076      20.517      20.669      20.517    
  20.076      19.388      18.514      17.528      16.504      15.509      16.914      15.487      14.256      13.229    
  12.392      11.722      11.195      10.790      10.492      10.296      10.198      10.198      10.296      10.492    
  10.790      11.195      11.722      12.392      13.229      14.256      15.487      16.914      18.498      20.171    
  21.834      23.368      24.654      25.587      26.079      26.079      25.587      24.654      23.368      21.833    
  20.171      18.498      20.764      18.470      16.457      14.764      13.386      12.293      11.441      10.790    
  10.308      9.9735      9.7760      9.7106      9.7760      9.9735      10.308      10.790      11.441      12.293    
  13.386      14.764      16.457      18.470      20.764      23.253      25.805      28.296      30.559      32.386    
  33.576      33.990      33.576      32.386      30.559      28.296      25.804      23.253      26.688      23.216    
  20.109      17.453      15.277      13.555      12.229      11.229      10.492      9.9735      9.6411      9.4784    
  9.4784      9.6411      9.9735      10.492      11.229      12.229      13.555      15.277      17.453      20.109    
  23.216      26.688      30.467      34.399      38.195      41.491      43.929      45.225      45.225      43.929    
  41.491      38.195      34.399      30.467      35.828      30.422      25.726      21.736      18.410      15.757    
  13.716      12.190      11.079      10.296      9.7760      9.4784      9.3814      9.4784      9.7760      10.296    
  11.079      12.190      13.716      15.757      18.410      21.736      25.726      30.422      35.828      41.714    
  47.644      53.070      57.430      60.254      61.232      60.254      57.430      53.070      47.644      41.714    
  49.943      41.663      34.307      28.175      23.235      19.258      16.163      13.847      12.169      10.991    
  10.198      9.7106      9.4784      9.4784      9.7106      10.198      10.991      12.169      13.847      16.163    
  19.258      23.235      28.175      34.307      41.663      49.943      58.557      66.745      73.715      78.779    
  81.440      81.440      78.779      73.715      66.745      58.557      70.200      58.507      47.545      38.057    
  30.399      24.491      19.926      16.459      13.933      12.160      10.961      10.198      9.7760      9.6411    
  9.7760      10.198      10.961      12.160      13.933      16.459      19.926      24.491      30.399      38.057    
  47.545      58.507      70.200      81.635      91.775      99.702      104.73      106.45      104.73      99.702    
  91.775      81.635      96.529      81.593      66.652      52.928      41.314      32.194      25.402      20.353    
  16.614      13.963      12.160      10.991      10.296      9.9735      9.9735      10.296      10.991      12.160    
  13.963      16.614      20.353      25.402      32.194      41.314      52.928      66.652      81.593      96.529    
  110.16      121.34      129.23      133.29      133.29      129.23      121.34      110.16      127.30      110.13    
  91.704      73.591      57.257      43.725      33.365      25.883      20.500      16.614      13.933      12.169    
  11.079      10.492      10.308      10.492      11.079      12.169      13.933      16.614      20.500      25.883    
  33.365      43.725      57.257      73.591      91.704      110.13      127.30      141.83      152.74      159.45    
  161.71      159.45      152.74      141.83      159.54      141.83      121.31      99.616      78.635      60.062    
  45.007      33.772      25.883      20.353      16.459      13.847      12.190      11.229      10.790      10.790    
  11.229      12.190      13.847      16.459      20.353      25.883      33.772      45.007      60.062      78.635    
  99.616      121.31      141.83      159.54      173.31      182.60      187.23      187.23      182.60      173.31    
  189.64      173.33      152.75      129.20      104.64      81.287      61.033      45.007      33.365      25.402    
  19.926      16.163      13.716      12.229      11.441      11.195      11.441      12.229      13.716      16.163    
  19.926      25.402      33.365      45.007      61.033      81.287      104.64      129.20      152.75      173.33    
  189.64      201.13      207.85      210.05      207.85      201.13      214.45      201.17      182.64      159.47    
  133.26      106.36      81.287      60.062      43.725      32.194      24.491      19.258      15.757      13.555    
  12.293      11.722      11.722      12.293      13.555      15.757      19.258      24.491      32.194      43.725    
  60.062      81.287      106.36      133.26      159.47      182.64      201.17      214.45      222.73      226.63    
  226.63      222.73      232.19      222.77      207.92      187.30      161.74      133.26      104.64      78.635    
  57.257      41.314      30.399      23.235      18.410      15.277      13.386      12.392      12.084      12.392    
  13.386      15.277      18.410      23.235      30.399      41.314      57.257      78.635      104.64      133.26    
  161.74      187.30      207.92      222.77      232.19      237.17      238.70      237.17      242.87      237.21    
  226.70      210.13      187.30      159.47      129.20      99.616      73.591      52.928      38.057      28.175    
  21.736      17.453      14.764      13.229      12.539      12.539      13.229      14.764      17.453      21.736    
  28.175      38.057      52.928      73.591      99.616      129.20      159.47      187.30      210.13      226.70    
  237.21      242.87      245.20      245.20      248.00      245.22      238.75      226.70      207.92      182.64    
  152.75      121.31      91.704      66.652      47.545      34.307      25.726      20.109      16.457      14.256    
  13.102      12.745      13.102      14.256      16.457      20.109      25.726      34.307      47.545      66.652    
  91.704      121.31      152.75      182.64      207.92      226.70      238.75      245.22      248.00      248.71    
  249.80      248.72      245.22      237.21      222.77      201.17      173.33      141.83      110.13      81.593    
  58.507      41.663      30.422      23.216      18.470      15.487      13.786      13.022      13.022      13.786    
  15.487      18.470      23.216      30.422      41.663      58.507      81.593      110.13      141.83      173.33    
  201.17      222.77      237.21      245.22      248.72      249.80      249.99      249.55      247.50      242.02    
  230.98      212.92      187.93      157.82      125.74      95.231      69.221      49.268      35.394      26.411    
  20.570      16.773      14.484      13.284      12.913      13.284      14.484      16.773      20.570      26.411    
  35.394      49.268      69.221      95.231      125.74      157.82      187.93      212.92      230.98      242.02    
  247.50      249.55      249.55      249.55      248.29      244.48      236.10      221.32      199.48      171.58    
  140.18      108.73      80.505      57.745      41.175      30.125      23.023      18.333      15.386      13.704    
  12.949      12.949      13.704      15.386      18.333      23.023      30.125      41.175      57.745      80.505    
  108.73      140.18      171.58      199.48      221.32      236.10      244.48      248.29      247.50      248.30    
  247.50      244.48      237.67      225.29      206.25      180.86      151.04      119.81      90.523      65.810    
  47.003      33.987      25.537      19.982      16.366      14.186      13.041      12.687      13.041      14.186    
  16.366      19.982      25.537      33.987      47.003      65.810      90.523      119.81      151.04      180.86    
  206.25      225.29      237.67      244.48      242.02      244.51      244.51      242.02      236.10      225.29    
  208.47      185.51      157.73      127.64      98.364      72.682      52.338      37.713      27.987      21.620    
  17.374      14.705      13.179      12.492      12.492      13.179      14.705      17.374      21.620      27.987    
  37.713      52.338      72.682      98.364      127.64      157.73      185.51      208.47      225.29      236.10    
  230.98      236.13      237.73      236.13      230.98      221.32      206.25      185.51      159.98      131.68    
  103.34      77.679      56.629      40.950      30.210      23.132      18.345      15.230      13.347      12.355    
  12.048      12.355      13.347      15.230      18.345      23.132      30.210      40.950      56.629      77.679    
  103.34      131.68      159.98      185.51      206.25      221.32      212.92      221.37      225.36      225.36    
  221.37      212.92      199.48      180.86      157.73      131.68      105.05      80.306      59.409      43.345    
  32.003      24.399      19.206      15.722      13.526      12.264      11.693      11.693      12.264      13.526    
  15.722      19.206      24.399      32.003      43.345      59.409      80.306      105.05      131.68      157.73    
  180.86      199.48      187.93      199.52      206.32      208.55      206.32      199.52      187.93      171.58    
  151.04      127.64      103.34      80.306      60.372      44.619      33.172      25.318      19.883      16.138    
  13.695      12.206      11.416      11.169      11.416      12.206      13.695      16.138      19.883      25.318    
  33.172      44.619      60.372      80.306      103.34      127.64      151.04      171.58      157.82      171.60    
  180.92      185.59      185.59      180.92      171.60      157.82      140.18      119.81      98.364      77.679    
  59.409      44.619      33.578      25.802      20.317      16.441      13.833      12.172      11.205      10.763    
  10.763      11.205      12.172      13.833      16.441      20.317      25.802      33.578      44.619      59.409    
  77.679      98.364      119.81      140.18      125.74      140.18      151.06      157.76      160.02      157.76    
  151.06      140.18      125.74      108.73      90.523      72.682      56.629      43.345      33.172      25.802    
  20.467      16.600      13.923      12.154      11.057      10.465      10.278      10.465      11.057      12.154    
  13.923      16.600      20.467      25.802      33.172      43.345      56.629      72.682      90.523      108.73    
  95.231      108.71      119.79      127.63      131.67      131.67      127.63      119.79      108.71      95.231    
  80.505      65.810      52.338      40.950      32.003      25.318      20.317      16.600      13.954      12.146    
  10.969      10.267      9.9404      9.9404      10.267      10.969      12.146      13.954      16.600      20.317    
  25.318      32.003      40.950      52.338      65.810      80.505      69.221      80.469      90.465      98.296    
  103.27      104.98      103.27      98.296      90.465      80.469      69.221      57.745      47.003      37.713    
  30.210      24.399      19.883      16.441      13.923      12.146      10.939      10.168      9.7403      9.6034    
  9.7403      10.168      10.939      12.146      13.923      16.441      19.883      24.399      30.210      37.713    
  47.003      57.745      49.268      57.700      65.728      72.575      77.556      80.176      80.176      77.556    
  72.575      65.728      57.700      49.268      41.175      33.987      27.987      23.132      19.206      16.138    
  13.833      12.154      10.969      10.168      9.6739      9.4381      9.4381      9.6739      10.168      10.969    
  12.154      13.833      16.138      19.206      23.132      27.987      33.987      41.175      35.394      41.130    
  46.914      52.212      56.476      59.240      60.198      59.240      56.476      52.212      46.914      41.130    
  35.394      30.125      25.537      21.620      18.345      15.722      13.695      12.172      11.057      10.267    
  9.7403      9.4381      9.3395      9.4381      9.7403      10.267      11.057      12.172      13.695      15.722    
  18.345      21.620      25.537      30.125      26.411      30.085      33.904      37.590      40.792      43.163    
  44.425      44.425      43.163      40.792      37.590      33.904      30.085      26.411      23.023      19.982    
  17.374      15.230      13.526      12.206      11.205      10.465      9.9404      9.6034      9.4381      9.4381    
  9.6034      9.9404      10.465      11.205      12.206      13.526      15.230      17.374      19.982      23.023    
  20.570      22.991      25.468      27.879      30.067      31.833      32.984      33.384      32.984      31.833    
  30.067      27.879      25.468      22.991      20.570      18.334      16.366      14.705      13.347      12.264    
  11.416      10.763      10.278      9.9404      9.7403      9.6739      9.7403      9.9404      10.278      10.763    
  11.416      12.264      13.347      14.705      16.366      18.333      16.773      18.309      19.927      21.534    
  23.015      24.255      25.154      25.628      25.628      25.154      24.255      23.015      21.534      19.928    
  18.309      16.773      15.386      14.186      13.179      12.355      11.693      11.169      10.763      10.465    
  10.267      10.168      10.168      10.267      10.465      10.763      11.169      11.693      12.355      13.179    
  14.186      15.386      14.484      15.368      16.326      17.309      18.255      19.093      19.753      20.175    
  20.320      20.175      19.753      19.093      18.255      17.309      16.326      15.368      14.484      13.704    
  13.041      12.492      12.048      11.693      11.416      11.205      11.057      10.969      10.939      10.969    
  11.057      11.205      11.416      11.693      12.048      12.492      13.041      13.704      13.284      13.690    
  14.155      14.657      15.164      15.639      16.041      16.333      16.487      16.487      16.333      16.041    
  15.639      15.164      14.657      14.155      13.690      13.284      12.949      12.687      12.492      12.355    
  12.264      12.206      12.172      12.154      12.146      12.146      12.154      12.172      12.206      12.264    
  12.355      12.492      12.687      12.949      12.913      12.937      13.017      13.143      13.299      13.467    
  13.625      13.756      13.841      13.871      13.841      13.756      13.625      13.467      13.299      13.143    
  13.017      12.937      12.913      12.949      13.041      13.179      13.347      13.526      13.695      13.833    
  13.923      13.954      13.923      13.833      13.695      13.526      13.347      13.179      13.041      12.949    
  13.284      12.937      12.665      12.462      12.318      12.220      12.158      12.120      12.099      12.090    
  12.090      12.099      12.120      12.158      12.220      12.318      12.462      12.665      12.937      13.284    
  13.704      14.186      14.705      15.230      15.722      16.138      16.441      16.600      16.600      16.441    
  16.138      15.722      15.230      14.705      14.186      13.704      14.484      13.690      13.017      12.462    
  12.013      11.657      11.379      11.170      11.022      10.935      10.906      10.935      11.022      11.170    
  11.379      11.657      12.013      12.462      13.017      13.690      14.484      15.386      16.366      17.374    
  18.345      19.206      19.883      20.317      20.467      20.317      19.883      19.206      18.345      17.374    
  16.366      15.386      16.773      15.368      14.155      13.143      12.318      11.657      11.137      10.736    
  10.442      10.248      10.151      10.151      10.248      10.442      10.736      11.137      11.657      12.318    
  13.143      14.155      15.368      16.773      18.334      19.982      21.620      23.132      24.399      25.318    
  25.802      25.802      25.318      24.399      23.132      21.620      19.982      18.333      20.570      18.309    
  16.326      14.657      13.299      12.220      11.379      10.736      10.259      9.9285      9.7330      9.6683    
  9.7330      9.9285      10.259      10.736      11.379      12.220      13.299      14.657      16.326      18.309    
  20.570      23.023      25.537      27.987      30.210      32.003      33.172      33.578      33.172      32.003    
  30.210      27.987      25.537      23.023      26.411      22.991      19.927      17.309      15.164      13.467    
  12.158      11.170      10.442      9.9285      9.5994      9.4382      9.4382      9.5994      9.9285      10.442    
  11.170      12.158      13.467      15.164      17.309      19.928      22.991      26.411      30.125      33.987    
  37.713      40.950      43.345      44.619      44.619      43.345      40.950      37.713      33.987      30.125    
  35.394      30.085      25.468      21.534      18.255      15.639      13.625      12.120      11.022      10.248    
  9.7330      9.4382      9.3421      9.4382      9.7330      10.248      11.022      12.120      13.625      15.639    
  18.255      21.534      25.468      30.085      35.394      41.175      47.003      52.338      56.629      59.409    
  60.372      59.409      56.629      52.338      47.003      41.175      49.268      41.130      33.904      27.879    
  23.015      19.093      16.041      13.756      12.099      10.935      10.151      9.6683      9.4382      9.4382    
  9.6683      10.151      10.935      12.099      13.756      16.041      19.093      23.015      27.879      33.904    
  41.130      49.268      57.745      65.810      72.682      77.679      80.306      80.306      77.679      72.682    
  65.810      57.745      69.221      57.700      46.914      37.590      30.067      24.255      19.753      16.333    
  13.841      12.090      10.906      10.151      9.7330      9.5994      9.7330      10.151      10.906      12.090    
  13.841      16.333      19.753      24.255      30.067      37.590      46.914      57.700      69.221      80.505    
  90.523      98.364      103.34      105.05      103.34      98.364      90.523      80.505      95.231      80.469    
  65.728      52.212      40.792      31.833      25.154      20.175      16.487      13.871      12.090      10.935    
  10.248      9.9285      9.9285      10.248      10.935      12.090      13.871      16.487      20.175      25.154    
  31.833      40.792      52.212      65.728      80.469      95.231      108.73      119.81      127.64      131.68    
  131.68      127.64      119.81      108.73      125.74      108.71      90.465      72.575      56.476      43.163    
  32.984      25.628      20.320      16.487      13.841      12.099      11.022      10.442      10.259      10.442    
  11.022      12.099      13.841      16.487      20.320      25.628      32.984      43.163      56.476      72.575    
  90.465      108.71      125.74      140.18      151.04      157.73      159.98      157.73      151.04      140.18    
  157.82      140.18      119.79      98.296      77.556      59.240      44.425      33.384      25.628      20.175    
  16.333      13.756      12.120      11.170      10.736      10.736      11.170      12.120      13.756      16.333    
  20.175      25.628      33.384      44.425      59.240      77.556      98.296      119.79      140.18      157.82    
  171.58      180.86      185.51      185.51      180.86      171.58      187.93      171.60      151.06      127.63    
  103.27      80.176      60.198      44.425      32.984      25.154      19.753      16.041      13.625      12.158    
  11.379      11.137      11.379      12.158      13.625      16.041      19.753      25.154      32.984      44.425    
  60.198      80.176      103.27      127.63      151.06      171.60      187.93      199.48      206.25      208.47    
  206.25      199.48      212.92      199.52      180.92      157.76      131.67      104.98      80.176      59.240    
  43.163      31.833      24.255      19.093      15.639      13.467      12.220      11.657      11.657      12.220    
  13.467      15.639      19.093      24.255      31.833      43.163      59.240      80.176      104.98      131.67    
  157.76      180.92      199.52      212.92      221.32      225.29      225.29      221.32      230.98      221.37    