Pt-hcc                                  
   1.00000000000000     
     2.670383    0.000000    0.000000
    -1.335191    2.312619    0.000000
     0.000000    0.000000    4.626376
   Pt
     2
Direct
  0.000000  0.000000  0.000000
  0.333333  0.666667  0.500000
 
   36   36   64
 0.25015822482E+03 0.24980145907E+03 0.24799949505E+03 0.24286844897E+03 0.23219332283E+03
 0.21445258212E+03 0.18964087258E+03 0.15953970012E+03 0.12730362991E+03 0.96528730231E+02
 0.70199795223E+02 0.49943063439E+02 0.35828233600E+02 0.26687865892E+02 0.20764257889E+02
 0.16913536487E+02 0.14592608370E+02 0.13375829776E+02 0.12999594161E+02 0.13375830627E+02
 0.14592609608E+02 0.16913537429E+02 0.20764257997E+02 0.26687865084E+02 0.35828232344E+02
 0.49943062577E+02 0.70199795596E+02 0.96528732278E+02 0.12730363343E+03 0.15953970433E+03
 0.18964087639E+03 0.21445258461E+03 0.23219332362E+03 0.24286844836E+03 0.24799949382E+03
 0.24980145816E+03 0.24980145816E+03 0.24980144127E+03 0.24871202127E+03 0.24519813629E+03
 0.23717062058E+03 0.22273379672E+03 0.20113345254E+03 0.17331400951E+03 0.14183406308E+03
 0.11015993635E+03 0.81635013133E+02 0.58557482268E+02 0.41713599213E+02 0.30466922662E+02
 0.23252652663E+02 0.18497963284E+02 0.15509128597E+02 0.13803497844E+02 0.13037521505E+02
 0.13037518703E+02 0.13803491092E+02 0.15509121912E+02 0.18497960773E+02 0.23252656093E+02
 0.30466930294E+02 0.41713606576E+02 0.58557484715E+02 0.81635008830E+02 0.11015992831E+03
 0.14183405880E+03 0.17331401831E+03 0.20113348130E+03 0.22273384606E+03 0.23717068326E+03
 0.24519819853E+03 0.24871206715E+03 0.24799949382E+03 0.24872119025E+03 0.24799944337E+03
 0.24519811253E+03 0.23869506937E+03 0.22663387188E+03 0.20785033565E+03 0.18259582407E+03
 0.15273960663E+03 0.12134283901E+03 0.91774647101E+02 0.66745043253E+02 0.47644249989E+02
 0.34399453760E+02 0.25804481309E+02 0.20170907034E+02 0.16504486505E+02 0.14293210007E+02
 0.13132635876E+02 0.12773489560E+02 0.13132626424E+02 0.14293196667E+02 0.16504477298E+02
 0.20170907875E+02 0.25804492439E+02 0.34399469200E+02 0.47644260524E+02 0.66745041687E+02
 0.91774633131E+02 0.12134282115E+03 0.15273959977E+03 0.18259584338E+03 0.20785038930E+03
 0.22663395576E+03 0.23869516668E+03 0.24519819853E+03 0.24286844836E+03 0.24522145464E+03
 0.24522143106E+03 0.24286838522E+03 0.23717060038E+03 0.22663387758E+03 0.21004596508E+03
 0.18723213783E+03 0.15944978135E+03 0.12922830833E+03 0.99702158644E+02 0.73715322043E+02
 0.53069808476E+02 0.38195139285E+02 0.28295734907E+02 0.21833480656E+02 0.17528292915E+02
 0.14821798461E+02 0.13274516349E+02 0.12578301919E+02 0.12578296141E+02 0.13274502378E+02
 0.14821784566E+02 0.17528287686E+02 0.21833488118E+02 0.28295751868E+02 0.38195156568E+02
 0.53069815523E+02 0.73715312893E+02 0.99702136113E+02 0.12922828430E+03 0.15944977238E+03
 0.18723215789E+03 0.21004601858E+03 0.22663395576E+03 0.23717068326E+03 0.23219332362E+03
 0.23720649973E+03 0.23874511403E+03 0.23720647877E+03 0.23219329012E+03 0.22273381323E+03
 0.20785036970E+03 0.18723215821E+03 0.16170882396E+03 0.13329136379E+03 0.10473252304E+03
 0.78779309856E+02 0.57430288359E+02 0.41491063618E+02 0.30559131902E+02 0.23367804388E+02
 0.18514429471E+02 0.15356123810E+02 0.13447018001E+02 0.12441576400E+02 0.12129676085E+02
 0.12441567652E+02 0.13447005519E+02 0.15356114970E+02 0.18514430024E+02 0.23367815183E+02
 0.30559147969E+02 0.41491076285E+02 0.57430289359E+02 0.78779295654E+02 0.10473249709E+03
 0.13329133563E+03 0.16170880536E+03 0.18723215789E+03 0.20785038930E+03 0.22273384606E+03
 0.21445258461E+03 0.22277449019E+03 0.22670139105E+03 0.22670139573E+03 0.22277450420E+03
 0.21445260764E+03 0.20113351205E+03 0.18259587911E+03 0.15944980884E+03 0.13329136784E+03
 0.10645450924E+03 0.81439967011E+02 0.60254355643E+02 0.43928686908E+02 0.32385537576E+02
 0.24653686887E+02 0.19388265746E+02 0.15856090210E+02 0.13630123645E+02 0.12350861645E+02
 0.11772396491E+02 0.11772394045E+02 0.12350855568E+02 0.13630117099E+02 0.15856086795E+02
 0.19388267707E+02 0.24653693931E+02 0.32385546639E+02 0.43928693187E+02 0.60254354242E+02
 0.81439954770E+02 0.10645448578E+03 0.13329133563E+03 0.15944977238E+03 0.18259584338E+03
 0.20113348130E+03 0.18964087639E+03 0.20116798195E+03 0.20791682114E+03 0.21012528331E+03
 0.20791685258E+03 0.20116803737E+03 0.18964094331E+03 0.17331408307E+03 0.15273965150E+03
 0.12922831755E+03 0.10473251232E+03 0.81439957021E+02 0.61231653823E+02 0.45225029088E+02
 0.33576147012E+02 0.25586758371E+02 0.20076371196E+02 0.16279328517E+02 0.13802252581E+02
 0.12293973051E+02 0.11493023472E+02 0.11243207378E+02 0.11493023879E+02 0.12293973087E+02
 0.13802251336E+02 0.16279325841E+02 0.20076368142E+02 0.25586756867E+02 0.33576148604E+02
 0.45225033483E+02 0.61231657810E+02 0.81439954770E+02 0.10473249709E+03 0.12922828430E+03
 0.15273959977E+03 0.17331401831E+03 0.15953970433E+03 0.17333225557E+03 0.18264056107E+03
 0.18729546753E+03 0.18729548661E+03 0.18264061264E+03 0.17333232461E+03 0.15953977206E+03
 0.14183410920E+03 0.12134284613E+03 0.99702137198E+02 0.78779281957E+02 0.60254337594E+02
 0.45225023448E+02 0.33989952773E+02 0.26079199288E+02 0.20516875453E+02 0.16586855980E+02
 0.13942805146E+02 0.12260503328E+02 0.11281673443E+02 0.10834471002E+02 0.10834473637E+02
 0.11281679496E+02 0.12260508402E+02 0.13942804918E+02 0.16586849092E+02 0.20516864726E+02
 0.26079190737E+02 0.33989952364E+02 0.45225033483E+02 0.60254354242E+02 0.78779295654E+02
 0.99702136113E+02 0.12134282115E+03 0.14183405880E+03 0.12730363343E+03 0.14183027095E+03
 0.15274722857E+03 0.15947192557E+03 0.16173732638E+03 0.15947195160E+03 0.15274727081E+03
 0.14183031376E+03 0.12730366168E+03 0.11015993328E+03 0.91774615537E+02 0.73715281878E+02
 0.57430257941E+02 0.43928672788E+02 0.33576144307E+02 0.26079200073E+02 0.20668534770E+02
 0.16748748521E+02 0.14034708907E+02 0.12242539582E+02 0.11132645333E+02 0.10533509906E+02
 0.10344735244E+02 0.10533517531E+02 0.11132655801E+02 0.12242546017E+02 0.14034706269E+02
 0.16748736834E+02 0.20668519730E+02 0.26079190737E+02 0.33576148604E+02 0.43928693187E+02
 0.57430289359E+02 0.73715312893E+02 0.91774633131E+02 0.11015992831E+03 0.96528732278E+02
 0.11013429707E+03 0.12130829283E+03 0.12919554274E+03 0.13326250476E+03 0.13326250893E+03
 0.12919555213E+03 0.12130829979E+03 0.11013429305E+03 0.96528712098E+02 0.81634973521E+02
 0.66744998452E+02 0.53069775001E+02 0.41491048298E+02 0.32385535983E+02 0.25586761853E+02
 0.20516878136E+02 0.16748749431E+02 0.14066663006E+02 0.12234851374E+02 0.11043563497E+02
 0.10334149885E+02 0.10004174148E+02 0.10004178708E+02 0.10334161065E+02 0.11043574986E+02
 0.12234856494E+02 0.14066658254E+02 0.16748736834E+02 0.20516864726E+02 0.25586756867E+02
 0.32385546639E+02 0.41491076285E+02 0.53069815523E+02 0.66745041687E+02 0.81635008830E+02
 0.70199795596E+02 0.81592940192E+02 0.91703890436E+02 0.99616044189E+02 0.10464038857E+03
 0.10636103924E+03 0.10464037966E+03 0.99616025605E+02 0.91703861597E+02 0.81592902048E+02
 0.70199751572E+02 0.58557440580E+02 0.47644223036E+02 0.38195131290E+02 0.30559137101E+02
 0.24653695740E+02 0.20076377143E+02 0.16586858474E+02 0.14034710328E+02 0.12234852858E+02
 0.11013877297E+02 0.10234527091E+02 0.98025219414E+01 0.96642640116E+01 0.98025292453E+01
 0.10234538243E+02 0.11013886995E+02 0.12234856494E+02 0.14034706269E+02 0.16586849092E+02
 0.20076368142E+02 0.24653693931E+02 0.30559147969E+02 0.38195156568E+02 0.47644260524E+02
 0.58557484715E+02 0.49943062577E+02 0.58507200174E+02 0.66651777406E+02 0.73590562179E+02
 0.78635182507E+02 0.81286979796E+02 0.81286971267E+02 0.78635158479E+02 0.73590526980E+02
 0.66651737101E+02 0.58507161334E+02 0.49943030746E+02 0.41713585319E+02 0.34399459268E+02
 0.28295751611E+02 0.23367821168E+02 0.19388275570E+02 0.16279331871E+02 0.13942806643E+02
 0.12242542918E+02 0.11043568319E+02 0.10234530464E+02 0.97356361527E+01 0.94976643136E+01
 0.94976666218E+01 0.97356422575E+01 0.10234538243E+02 0.11043574986E+02 0.12242546017E+02
 0.13942804918E+02 0.16279325841E+02 0.19388267707E+02 0.23367815183E+02 0.28295751868E+02
 0.34399469200E+02 0.41713606576E+02 0.35828232344E+02 0.41663237006E+02 0.47544558477E+02
 0.52927840487E+02 0.57256986889E+02 0.60062217365E+02 0.61033285163E+02 0.60062202075E+02
 0.57256961099E+02 0.52927812110E+02 0.47544535771E+02 0.41663225795E+02 0.35828234328E+02
 0.30466942938E+02 0.25804510631E+02 0.21833505874E+02 0.18514442915E+02 0.15856093159E+02
 0.13802251902E+02 0.12260505632E+02 0.11132652211E+02 0.10334158345E+02 0.98025278313E+01
 0.94976661462E+01 0.93982331094E+01 0.94976666218E+01 0.98025292453E+01 0.10334161065E+02
 0.11132655801E+02 0.12260508402E+02 0.13802251336E+02 0.15856086795E+02 0.18514430024E+02
 0.21833488118E+02 0.25804492439E+02 0.30466930294E+02 0.26687865084E+02 0.30422271130E+02
 0.34306719275E+02 0.38056598330E+02 0.41314180107E+02 0.43724622326E+02 0.45006978666E+02
 0.45006973955E+02 0.43724610682E+02 0.41314168017E+02 0.38056593397E+02 0.34306727030E+02
 0.30422292720E+02 0.26687896883E+02 0.23252691007E+02 0.20170938200E+02 0.17528308350E+02
 0.15356124685E+02 0.13630118450E+02 0.12293970866E+02 0.11281678118E+02 0.10533519275E+02
 0.10004183011E+02 0.96642683977E+01 0.94976661462E+01 0.94976643136E+01 0.96642640116E+01
 0.10004178708E+02 0.10533517531E+02 0.11281679496E+02 0.12293973087E+02 0.13630117099E+02
 0.15356114970E+02 0.17528287686E+02 0.20170907875E+02 0.23252656093E+02 0.20764257997E+02
 0.23216235254E+02 0.25726363102E+02 0.28174788101E+02 0.30399012278E+02 0.32194260990E+02
 0.33364946089E+02 0.33771914093E+02 0.33364943669E+02 0.32194259801E+02 0.30399017766E+02
 0.28174804808E+02 0.25726392152E+02 0.23216273257E+02 0.20764298089E+02 0.18497995413E+02
 0.16504500881E+02 0.14821795450E+02 0.13447006552E+02 0.12350852360E+02 0.11493022098E+02
 0.10834476656E+02 0.10344742805E+02 0.10004183011E+02 0.98025278313E+01 0.97356361527E+01
 0.98025219414E+01 0.10004174148E+02 0.10344735244E+02 0.10834473637E+02 0.11493023879E+02
 0.12350855568E+02 0.13447005519E+02 0.14821784566E+02 0.16504477298E+02 0.18497960773E+02
 0.16913537429E+02 0.18469586714E+02 0.20109052685E+02 0.21735680666E+02 0.23235076036E+02
 0.24490779047E+02 0.25401745203E+02 0.25882531978E+02 0.25882532176E+02 0.25401747056E+02
 0.24490785585E+02 0.23235090275E+02 0.21735703549E+02 0.20109081992E+02 0.18469617516E+02
 0.16913563545E+02 0.15509138318E+02 0.14293201648E+02 0.13274498199E+02 0.12441559396E+02
 0.11772387494E+02 0.11243206608E+02 0.10834476656E+02 0.10533519275E+02 0.10334158345E+02
 0.10234530464E+02 0.10234527091E+02 0.10334149885E+02 0.10533509906E+02 0.10834471002E+02
 0.11243207378E+02 0.11772394045E+02 0.12441567652E+02 0.13274502378E+02 0.14293196667E+02
 0.15509121912E+02 0.14592609608E+02 0.15487288567E+02 0.16456913881E+02 0.17452563560E+02
 0.18410383042E+02 0.19258444479E+02 0.19925963340E+02 0.20353209792E+02 0.20500295964E+02
 0.20353210454E+02 0.19925965817E+02 0.19258450301E+02 0.18410392859E+02 0.17452576303E+02
 0.16456926545E+02 0.15487297133E+02 0.14592610735E+02 0.13803483615E+02 0.13132612005E+02
 0.12578278808E+02 0.12129660895E+02 0.11772387494E+02 0.11493022098E+02 0.11281678118E+02
 0.11132652211E+02 0.11043568319E+02 0.11013877297E+02 0.11043563497E+02 0.11132645333E+02
 0.11281673443E+02 0.11493023472E+02 0.11772396491E+02 0.12129676085E+02 0.12578296141E+02
 0.13132626424E+02 0.13803491092E+02 0.13375830627E+02 0.13786123437E+02 0.14256312895E+02
 0.14763868830E+02 0.15276884365E+02 0.15756922456E+02 0.16163379427E+02 0.16458811318E+02
 0.16614381274E+02 0.16614381052E+02 0.16458810804E+02 0.16163378895E+02 0.15756921823E+02
 0.15276882833E+02 0.14763864810E+02 0.14256304459E+02 0.13786109174E+02 0.13375810377E+02
 0.13037494035E+02 0.12773463680E+02 0.12578278808E+02 0.12441559396E+02 0.12350852360E+02
 0.12293970866E+02 0.12260505632E+02 0.12242542918E+02 0.12234852858E+02 0.12234851374E+02
 0.12242539582E+02 0.12260503328E+02 0.12293973051E+02 0.12350861645E+02 0.12441576400E+02
 0.12578301919E+02 0.12773489560E+02 0.13037518703E+02 0.12999594161E+02 0.13022380868E+02
 0.13102194750E+02 0.13228691981E+02 0.13386167799E+02 0.13555365530E+02 0.13715602119E+02
 0.13847091908E+02 0.13933345393E+02 0.13963382702E+02 0.13933345148E+02 0.13847090791E+02
 0.13715598985E+02 0.13555359033E+02 0.13386156634E+02 0.13228675389E+02 0.13102172829E+02
 0.13022354710E+02 0.12999565922E+02 0.13037494035E+02 0.13132612005E+02 0.13274498199E+02
 0.13447006552E+02 0.13630118450E+02 0.13802251902E+02 0.13942806643E+02 0.14034710328E+02
 0.14066663006E+02 0.14034708907E+02 0.13942805146E+02 0.13802252581E+02 0.13630123645E+02
 0.13447018001E+02 0.13274516349E+02 0.13132635876E+02 0.13037521505E+02 0.13375829776E+02
 0.13022377290E+02 0.12745193009E+02 0.12538518897E+02 0.12391793911E+02 0.12292581535E+02
 0.12228832484E+02 0.12190260575E+02 0.12168970067E+02 0.12159656571E+02 0.12159657612E+02
 0.12168972363E+02 0.12190261969E+02 0.12228830321E+02 0.12292573678E+02 0.12391779638E+02
 0.12538499161E+02 0.12745170233E+02 0.13022354710E+02 0.13375810377E+02 0.13803483615E+02
 0.14293201648E+02 0.14821795450E+02 0.15356124685E+02 0.15856093159E+02 0.16279331871E+02
 0.16586858474E+02 0.16748749431E+02 0.16748748521E+02 0.16586855980E+02 0.16279328517E+02
 0.15856090210E+02 0.15356123810E+02 0.14821798461E+02 0.14293210007E+02 0.13803497844E+02
 0.14592608370E+02 0.13786114781E+02 0.13102184550E+02 0.12538513188E+02 0.12083562553E+02
 0.11722307102E+02 0.11440758356E+02 0.11228527139E+02 0.11079402613E+02 0.10990516391E+02
 0.10960942682E+02 0.10990521295E+02 0.11079409905E+02 0.11228532918E+02 0.11440759013E+02
 0.11722301008E+02 0.12083550755E+02 0.12538499161E+02 0.13102172829E+02 0.13786109174E+02
 0.14592610735E+02 0.15509138318E+02 0.16504500881E+02 0.17528308350E+02 0.18514442915E+02
 0.19388275570E+02 0.20076377143E+02 0.20516878136E+02 0.20668534770E+02 0.20516875453E+02
 0.20076371196E+02 0.19388265746E+02 0.18514429471E+02 0.17528292915E+02 0.16504486505E+02
 0.15509128597E+02 0.16913536487E+02 0.15487279895E+02 0.14256298468E+02 0.13228678174E+02
 0.12391786062E+02 0.11722305385E+02 0.11195199843E+02 0.10789799241E+02 0.10492421861E+02
 0.10296022561E+02 0.10198066480E+02 0.10198070249E+02 0.10296032164E+02 0.10492432987E+02
 0.10789807056E+02 0.11195201375E+02 0.11722301008E+02 0.12391779638E+02 0.13228675389E+02
 0.14256304459E+02 0.15487297133E+02 0.16913563545E+02 0.18497995413E+02 0.20170938200E+02
 0.21833505874E+02 0.23367821168E+02 0.24653695740E+02 0.25586761853E+02 0.26079200073E+02
 0.26079199288E+02 0.25586758371E+02 0.24653686887E+02 0.23367804388E+02 0.21833480656E+02
 0.20170907034E+02 0.18497963284E+02 0.20764257889E+02 0.18469583252E+02 0.16456903859E+02
 0.14763855102E+02 0.13386156605E+02 0.12292577228E+02 0.11440760169E+02 0.10789802481E+02
 0.10307666059E+02 0.99734687476E+01 0.97760196552E+01 0.97106009177E+01 0.97760267250E+01
 0.99734795673E+01 0.10307675700E+02 0.10789807056E+02 0.11440759013E+02 0.12292573678E+02
 0.13386156634E+02 0.14763864810E+02 0.16456926545E+02 0.18469617516E+02 0.20764298089E+02
 0.23252691007E+02 0.25804510631E+02 0.28295751611E+02 0.30559137101E+02 0.32385535983E+02
 0.33576144307E+02 0.33989952773E+02 0.33576147012E+02 0.32385537576E+02 0.30559131902E+02
 0.28295734907E+02 0.25804481309E+02 0.23252652663E+02 0.26687865892E+02 0.23216239356E+02
 0.20109053487E+02 0.17452558423E+02 0.15276876462E+02 0.13555360771E+02 0.12228834522E+02
 0.11228534668E+02 0.10492430120E+02 0.99734733444E+01 0.96410758058E+01 0.94784045291E+01
 0.94784070486E+01 0.96410819196E+01 0.99734795673E+01 0.10492432987E+02 0.11228532918E+02
 0.12228830321E+02 0.13555359033E+02 0.15276882833E+02 0.17452576303E+02 0.20109081992E+02
 0.23216273257E+02 0.26687896883E+02 0.30466942938E+02 0.34399459268E+02 0.38195131290E+02
 0.41491048298E+02 0.43928672788E+02 0.45225023448E+02 0.45225029088E+02 0.43928686908E+02
 0.41491063618E+02 0.38195139285E+02 0.34399453760E+02 0.30466922662E+02 0.35828233600E+02
 0.30422280740E+02 0.25726375099E+02 0.21735688167E+02 0.18410383639E+02 0.15756919762E+02
 0.13715602268E+02 0.12190267145E+02 0.11079414032E+02 0.10296033882E+02 0.97760265225E+01
 0.94784063639E+01 0.93814249378E+01 0.94784070486E+01 0.97760267250E+01 0.10296032164E+02
 0.11079409905E+02 0.12190261969E+02 0.13715598985E+02 0.15756921823E+02 0.18410392859E+02
 0.21735703549E+02 0.25726392152E+02 0.30422292720E+02 0.35828234328E+02 0.41713585319E+02
 0.47644223036E+02 0.53069775001E+02 0.57430257941E+02 0.60254337594E+02 0.61231653823E+02
 0.60254355643E+02 0.57430288359E+02 0.53069808476E+02 0.47644249989E+02 0.41713599213E+02
 0.49943063439E+02 0.41663246505E+02 0.34306736165E+02 0.28174805193E+02 0.23235085989E+02
 0.19258445558E+02 0.16163376567E+02 0.13847092242E+02 0.12168977266E+02 0.10990528183E+02
 0.10198077148E+02 0.97106059336E+01 0.94784063639E+01 0.94784045291E+01 0.97106009177E+01
 0.10198070249E+02 0.10990521295E+02 0.12168972363E+02 0.13847090791E+02 0.16163378895E+02
 0.19258450301E+02 0.23235090275E+02 0.28174804808E+02 0.34306727030E+02 0.41663225795E+02
 0.49943030746E+02 0.58557440580E+02 0.66744998452E+02 0.73715281878E+02 0.78779281957E+02
 0.81439957021E+02 0.81439967011E+02 0.78779309856E+02 0.73715322043E+02 0.66745043253E+02
 0.58557482268E+02 0.70199795223E+02 0.58507203431E+02 0.47544570390E+02 0.38056616093E+02
 0.30399027261E+02 0.24490783980E+02 0.19925958312E+02 0.16458803460E+02 0.13933342835E+02
 0.12159662158E+02 0.10960952401E+02 0.10198077148E+02 0.97760265225E+01 0.96410758058E+01
 0.97760196552E+01 0.10198066480E+02 0.10960942682E+02 0.12159657612E+02 0.13933345148E+02
 0.16458810804E+02 0.19925965817E+02 0.24490785585E+02 0.30399017766E+02 0.38056593397E+02
 0.47544535771E+02 0.58507161334E+02 0.70199751572E+02 0.81634973521E+02 0.91774615537E+02
 0.99702137198E+02 0.10473251232E+03 0.10645450924E+03 0.10473252304E+03 0.99702158644E+02
 0.91774647101E+02 0.81635013133E+02 0.96528730231E+02 0.81592934226E+02 0.66651776476E+02
 0.52927848633E+02 0.41314192497E+02 0.32194267908E+02 0.25401740649E+02 0.20353196616E+02
 0.16614368682E+02 0.13963378444E+02 0.12159662158E+02 0.10990528183E+02 0.10296033882E+02
 0.99734733444E+01 0.99734687476E+01 0.10296022561E+02 0.10990516391E+02 0.12159656571E+02
 0.13963382702E+02 0.16614381052E+02 0.20353210454E+02 0.25401747056E+02 0.32194259801E+02
 0.41314168017E+02 0.52927812110E+02 0.66651737101E+02 0.81592902048E+02 0.96528712098E+02
 0.11015993328E+03 0.12134284613E+03 0.12922831755E+03 0.13329136784E+03 0.13329136379E+03
 0.12922830833E+03 0.12134283901E+03 0.11015993635E+03 0.12730362991E+03 0.11013428467E+03
 0.91703875989E+02 0.73590554918E+02 0.57256989427E+02 0.43724627934E+02 0.33364944905E+02
 0.25882520178E+02 0.20500279021E+02 0.16614368682E+02 0.13933342835E+02 0.12168977266E+02
 0.11079414032E+02 0.10492430120E+02 0.10307666059E+02 0.10492421861E+02 0.11079402613E+02
 0.12168970067E+02 0.13933345393E+02 0.16614381274E+02 0.20500295964E+02 0.25882532176E+02
 0.33364943669E+02 0.43724610682E+02 0.57256961099E+02 0.73590526980E+02 0.91703861597E+02
 0.11013429305E+03 0.12730366168E+03 0.14183410920E+03 0.15273965150E+03 0.15944980884E+03
 0.16170882396E+03 0.15944978135E+03 0.15273960663E+03 0.14183406308E+03 0.15953970012E+03
 0.14183026046E+03 0.12130827351E+03 0.99616024328E+02 0.78635172132E+02 0.60062217892E+02
 0.45006981921E+02 0.33771910619E+02 0.25882520178E+02 0.20353196616E+02 0.16458803460E+02
 0.13847092242E+02 0.12190267145E+02 0.11228534668E+02 0.10789802481E+02 0.10789799241E+02
 0.11228527139E+02 0.12190260575E+02 0.13847091908E+02 0.16458811318E+02 0.20353209792E+02
 0.25882531978E+02 0.33771914093E+02 0.45006973955E+02 0.60062202075E+02 0.78635158479E+02
 0.99616025605E+02 0.12130829979E+03 0.14183031376E+03 0.15953977206E+03 0.17331408307E+03
 0.18259587911E+03 0.18723215821E+03 0.18723213783E+03 0.18259582407E+03 0.17331400951E+03
 0.18964087258E+03 0.17333225795E+03 0.15274721985E+03 0.12919552194E+03 0.10464036841E+03
 0.81286972247E+02 0.61033290358E+02 0.45006981921E+02 0.33364944905E+02 0.25401740649E+02
 0.19925958312E+02 0.16163376567E+02 0.13715602268E+02 0.12228834522E+02 0.11440760169E+02
 0.11195199843E+02 0.11440758356E+02 0.12228832484E+02 0.13715602119E+02 0.16163379427E+02
 0.19925963340E+02 0.25401745203E+02 0.33364946089E+02 0.45006978666E+02 0.61033285163E+02
 0.81286971267E+02 0.10464037966E+03 0.12919555213E+03 0.15274727081E+03 0.17333232461E+03
 0.18964094331E+03 0.20113351205E+03 0.20785036970E+03 0.21004596508E+03 0.20785033565E+03
 0.20113345254E+03 0.21445258212E+03 0.20116800582E+03 0.18264057893E+03 0.15947192001E+03
 0.13326248330E+03 0.10636102228E+03 0.81286972247E+02 0.60062217892E+02 0.43724627934E+02
 0.32194267908E+02 0.24490783980E+02 0.19258445558E+02 0.15756919762E+02 0.13555360771E+02
 0.12292577228E+02 0.11722305385E+02 0.11722307102E+02 0.12292581535E+02 0.13555365530E+02
 0.15756922456E+02 0.19258444479E+02 0.24490779047E+02 0.32194260990E+02 0.43724622326E+02
 0.60062217365E+02 0.81286979796E+02 0.10636103924E+03 0.13326250893E+03 0.15947195160E+03
 0.18264061264E+03 0.20116803737E+03 0.21445260764E+03 0.22273381323E+03 0.22663387758E+03
 0.22663387188E+03 0.22273379672E+03 0.23219332283E+03 0.22277453728E+03 0.20791687440E+03
 0.18729549076E+03 0.16173731397E+03 0.13326248330E+03 0.10464036841E+03 0.78635172132E+02
 0.57256989427E+02 0.41314192497E+02 0.30399027261E+02 0.23235085989E+02 0.18410383639E+02
 0.15276876462E+02 0.13386156605E+02 0.12391786062E+02 0.12083562553E+02 0.12391793911E+02
 0.13386167799E+02 0.15276884365E+02 0.18410383042E+02 0.23235076036E+02 0.30399012278E+02
 0.41314180107E+02 0.57256986889E+02 0.78635182507E+02 0.10464038857E+03 0.13326250476E+03
 0.16173732638E+03 0.18729548661E+03 0.20791685258E+03 0.22277450420E+03 0.23219329012E+03
 0.23717060038E+03 0.23869506937E+03 0.23717062058E+03 0.24286844897E+03 0.23720656285E+03
 0.22670147580E+03 0.21012533942E+03 0.18729549076E+03 0.15947192001E+03 0.12919552194E+03
 0.99616024328E+02 0.73590554918E+02 0.52927848633E+02 0.38056616093E+02 0.28174805193E+02
 0.21735688167E+02 0.17452558423E+02 0.14763855102E+02 0.13228678174E+02 0.12538513188E+02
 0.12538518897E+02 0.13228691981E+02 0.14763868830E+02 0.17452563560E+02 0.21735680666E+02
 0.28174788101E+02 0.38056598330E+02 0.52927840487E+02 0.73590562179E+02 0.99616044189E+02
 0.12919554274E+03 0.15947192557E+03 0.18729546753E+03 0.21012528331E+03 0.22670139573E+03
 0.23720647877E+03 0.24286838522E+03 0.24519811253E+03 0.24519813629E+03 0.24799949505E+03
 0.24522151897E+03 0.23874521311E+03 0.22670147580E+03 0.20791687440E+03 0.18264057893E+03
 0.15274721985E+03 0.12130827351E+03 0.91703875989E+02 0.66651776476E+02 0.47544570390E+02
 0.34306736165E+02 0.25726375099E+02 0.20109053487E+02 0.16456903859E+02 0.14256298468E+02
 0.13102184550E+02 0.12745193009E+02 0.13102194750E+02 0.14256312895E+02 0.16456913881E+02
 0.20109052685E+02 0.25726363102E+02 0.34306719275E+02 0.47544558477E+02 0.66651777406E+02
 0.91703890436E+02 0.12130829283E+03 0.15274722857E+03 0.18264056107E+03 0.20791682114E+03
 0.22670139105E+03 0.23874511403E+03 0.24522143106E+03 0.24799944337E+03 0.24871202127E+03
 0.24980145907E+03 0.24872123833E+03 0.24522151897E+03 0.23720656285E+03 0.22277453728E+03
 0.20116800582E+03 0.17333225795E+03 0.14183026046E+03 0.11013428467E+03 0.81592934226E+02
 0.58507203431E+02 0.41663246505E+02 0.30422280740E+02 0.23216239356E+02 0.18469583252E+02
 0.15487279895E+02 0.13786114781E+02 0.13022377290E+02 0.13022380868E+02 0.13786123437E+02
 0.15487288567E+02 0.18469586714E+02 0.23216235254E+02 0.30422271130E+02 0.41663237006E+02
 0.58507200174E+02 0.81592940192E+02 0.11013429707E+03 0.14183027095E+03 0.17333225557E+03
 0.20116798195E+03 0.22277449019E+03 0.23720649973E+03 0.24522145464E+03 0.24872119025E+03
 0.24980144127E+03 0.24999404146E+03 0.24954930943E+03 0.24750249697E+03 0.24202360473E+03
 0.23097606145E+03 0.21292391067E+03 0.18793280612E+03 0.15782117783E+03 0.12573691994E+03
 0.95230807700E+02 0.69221111431E+02 0.49268261598E+02 0.35394412817E+02 0.26410622707E+02
 0.20570166992E+02 0.16772873474E+02 0.14484305275E+02 0.13284320292E+02 0.12913225384E+02
 0.13284321079E+02 0.14484306417E+02 0.16772874330E+02 0.20570167064E+02 0.26410621926E+02
 0.35394411631E+02 0.49268260801E+02 0.69221111811E+02 0.95230809667E+02 0.12573692330E+03
 0.15782118183E+03 0.18793280973E+03 0.21292391303E+03 0.23097606219E+03 0.24202360414E+03
 0.24750249580E+03 0.24954930856E+03 0.24954930856E+03 0.24954929276E+03 0.24829325317E+03
 0.24448299431E+03 0.23609631874E+03 0.22132064889E+03 0.19948100507E+03 0.17157594340E+03
 0.14017818165E+03 0.10872604145E+03 0.80504701057E+02 0.57744539385E+02 0.41174705881E+02
 0.30124965226E+02 0.23022900335E+02 0.18333485964E+02 0.15386408514E+02 0.13704475938E+02
 0.12949011630E+02 0.12949008932E+02 0.13704469428E+02 0.15386402039E+02 0.18333483473E+02
 0.23022903552E+02 0.30124972522E+02 0.41174713003E+02 0.57744541877E+02 0.80504697098E+02
 0.10872603380E+03 0.14017817734E+03 0.17157595122E+03 0.19948103156E+03 0.22132069472E+03
 0.23609637719E+03 0.24448305247E+03 0.24829329608E+03 0.24750249580E+03 0.24830295721E+03
 0.24750244868E+03 0.24448297222E+03 0.23767340733E+03 0.22529072456E+03 0.20624947795E+03
 0.18086453601E+03 0.15103571551E+03 0.11981393652E+03 0.90523049108E+02 0.65809611533E+02
 0.47002712784E+02 0.33986620578E+02 0.25537088911E+02 0.19981526206E+02 0.16366134188E+02
 0.14185650783E+02 0.13041025094E+02 0.12686756319E+02 0.13041016041E+02 0.14185637985E+02
 0.16366125309E+02 0.19981526922E+02 0.25537099506E+02 0.33986635408E+02 0.47002723077E+02
 0.65809610373E+02 0.90523036064E+02 0.11981391950E+03 0.15103570851E+03 0.18086455335E+03
 0.20624952743E+03 0.22529080247E+03 0.23767349798E+03 0.24448305247E+03 0.24202360414E+03
 0.24450781703E+03 0.24450779511E+03 0.24202354547E+03 0.23609630028E+03 0.22529073013E+03
 0.20846564303E+03 0.18551117441E+03 0.15772517953E+03 0.12764172226E+03 0.98364298737E+02
 0.72682345003E+02 0.52338146729E+02 0.37713458415E+02 0.27986752936E+02 0.21619753646E+02
 0.17373998789E+02 0.14705142964E+02 0.13179096022E+02 0.12492269706E+02 0.12492264199E+02
 0.13179082696E+02 0.14705129685E+02 0.17373993745E+02 0.21619760717E+02 0.27986769153E+02
 0.37713475113E+02 0.52338153868E+02 0.72682336827E+02 0.98364277742E+02 0.12764169950E+03
 0.15772517054E+03 0.18551119237E+03 0.20846569221E+03 0.22529080247E+03 0.23609637719E+03
 0.23097606219E+03 0.23613492896E+03 0.23772715249E+03 0.23613490979E+03 0.23097603162E+03
 0.22132066495E+03 0.20624951001E+03 0.18551119337E+03 0.15997887128E+03 0.13167818087E+03
 0.10334384559E+03 0.77679306732E+02 0.56629011574E+02 0.40950324304E+02 0.30210001801E+02
 0.23132063176E+02 0.18344981752E+02 0.15230427206E+02 0.13347437914E+02 0.12355434132E+02
 0.12047629781E+02 0.12355425852E+02 0.13347426089E+02 0.15230418808E+02 0.18344982244E+02
 0.23132073418E+02 0.30210017168E+02 0.40950336649E+02 0.56629013075E+02 0.77679293949E+02
 0.10334382162E+03 0.13167815451E+03 0.15997885350E+03 0.18551119237E+03 0.20624952743E+03
 0.22132069472E+03 0.21292391303E+03 0.22136534690E+03 0.22536444514E+03 0.22536444974E+03
 0.22136536060E+03 0.21292393533E+03 0.19948106101E+03 0.18086458715E+03 0.15772520463E+03
 0.13167818427E+03 0.10504914156E+03 0.80306033123E+02 0.59409356875E+02 0.43344984456E+02
 0.32003217245E+02 0.24399160339E+02 0.19205594205E+02 0.15722091052E+02 0.13526441244E+02
 0.12264110812E+02 0.11693085728E+02 0.11693083456E+02 0.12264105159E+02 0.13526435129E+02
 0.15722087820E+02 0.19205595966E+02 0.24399166885E+02 0.32003225800E+02 0.43344990604E+02
 0.59409356050E+02 0.80306022289E+02 0.10504912020E+03 0.13167815451E+03 0.15772517054E+03
 0.18086455335E+03 0.19948103156E+03 0.18793280973E+03 0.19952066266E+03 0.20632456446E+03
 0.20855479100E+03 0.20632459404E+03 0.19952071472E+03 0.18793287241E+03 0.17157601159E+03
 0.15103575637E+03 0.12764172983E+03 0.10334383504E+03 0.80306023758E+02 0.60371775027E+02
 0.44618769093E+02 0.33172022954E+02 0.25317503610E+02 0.19883438760E+02 0.16138428153E+02
 0.13694921976E+02 0.12206410928E+02 0.11415546253E+02 0.11168790023E+02 0.11415546769E+02
 0.12206411136E+02 0.13694920890E+02 0.16138425525E+02 0.19883435570E+02 0.25317501767E+02
 0.33172024094E+02 0.44618773126E+02 0.60371779058E+02 0.80306022289E+02 0.10334382162E+03
 0.12764169950E+03 0.15103570851E+03 0.17157595122E+03 0.15782118183E+03 0.17160014806E+03
 0.18091983460E+03 0.18558757589E+03 0.18558759360E+03 0.18091988243E+03 0.17160021196E+03
 0.15782124424E+03 0.14017822339E+03 0.11981394176E+03 0.98364277860E+02 0.77679280643E+02
 0.59409340479E+02 0.44618764212E+02 0.33578238837E+02 0.25801863470E+02 0.20317449912E+02
 0.16441017354E+02 0.13832618174E+02 0.12172161731E+02 0.11205410596E+02 0.10763483113E+02
 0.10763485682E+02 0.11205416504E+02 0.12172166702E+02 0.13832617975E+02 0.16441010593E+02
 0.20317439233E+02 0.25801854645E+02 0.33578237686E+02 0.44618773126E+02 0.59409356050E+02
 0.77679293949E+02 0.98364277742E+02 0.11981391950E+03 0.14017817734E+03 0.12573692330E+03
 0.14018081529E+03 0.15105521004E+03 0.15776285128E+03 0.16002418880E+03 0.15776287498E+03
 0.15105524839E+03 0.14018085386E+03 0.12573694822E+03 0.10872603720E+03 0.90523018839E+02
 0.72682307629E+02 0.56628984064E+02 0.43344972334E+02 0.33172021087E+02 0.25801864357E+02
 0.20466887854E+02 0.16600336495E+02 0.13922707399E+02 0.12153607490E+02 0.11057163959E+02
 0.10464850808E+02 0.10278139749E+02 0.10464858127E+02 0.11057174025E+02 0.12153613712E+02
 0.13922704896E+02 0.16600325179E+02 0.20466873053E+02 0.25801854645E+02 0.33172024094E+02
 0.43344990604E+02 0.56629013075E+02 0.72682336827E+02 0.90523036064E+02 0.10872603380E+03
 0.95230809667E+02 0.10870693350E+03 0.11979185843E+03 0.12762595265E+03 0.13166876953E+03
 0.13166877303E+03 0.12762596038E+03 0.11979186350E+03 0.10870692832E+03 0.95230789766E+02