   2   2   1   0
  0.1428528E+02  0.2670383E-09  0.2670383E-09  0.4626376E-09  0.5000000E-15
  1.000000000000000E-004
  CAR 
 Pt-hcc                                  
     39.01591777    -43.93808951  301     13.13462500      1.00000000
    -43.938  0.0000E+00  0.0000E+00
    -43.662  0.0000E+00  0.0000E+00
    -43.385  0.0000E+00  0.0000E+00
    -43.109  0.0000E+00  0.0000E+00
    -42.832  0.0000E+00  0.0000E+00
    -42.556  0.0000E+00  0.0000E+00
    -42.279  0.0000E+00  0.0000E+00
    -42.002  0.0000E+00  0.0000E+00
    -41.726  0.0000E+00  0.0000E+00
    -41.449  0.0000E+00  0.0000E+00
    -41.173  0.0000E+00  0.0000E+00
    -40.896  0.0000E+00  0.0000E+00
    -40.620  0.0000E+00  0.0000E+00
    -40.343  0.5542E-09  0.1532E-09
    -40.067  0.4384E-01  0.1212E-01
    -39.790  0.1294E+00  0.4789E-01
    -39.514  0.2424E+00  0.1149E+00
    -39.237  0.1840E-01  0.1200E+00
    -38.961  0.0000E+00  0.1200E+00
    -38.684  0.0000E+00  0.1200E+00
    -38.408  0.0000E+00  0.1200E+00
    -38.131  0.0000E+00  0.1200E+00
    -37.855  0.0000E+00  0.1200E+00
    -37.578  0.0000E+00  0.1200E+00
    -37.302  0.0000E+00  0.1200E+00
    -37.025  0.0000E+00  0.1200E+00
    -36.749  0.0000E+00  0.1200E+00
    -36.472  0.0000E+00  0.1200E+00
    -36.196  0.0000E+00  0.1200E+00
    -35.919  0.0000E+00  0.1200E+00
    -35.643  0.0000E+00  0.1200E+00
    -35.366  0.0000E+00  0.1200E+00
    -35.090  0.0000E+00  0.1200E+00
    -34.813  0.0000E+00  0.1200E+00
    -34.537  0.0000E+00  0.1200E+00
    -34.260  0.0000E+00  0.1200E+00
    -33.984  0.0000E+00  0.1200E+00
    -33.707  0.0000E+00  0.1200E+00
    -33.431  0.0000E+00  0.1200E+00
    -33.154  0.0000E+00  0.1200E+00
    -32.878  0.0000E+00  0.1200E+00
    -32.601  0.0000E+00  0.1200E+00
    -32.325  0.0000E+00  0.1200E+00
    -32.048  0.0000E+00  0.1200E+00
    -31.772  0.0000E+00  0.1200E+00
    -31.495  0.0000E+00  0.1200E+00
    -31.218  0.0000E+00  0.1200E+00
    -30.942  0.0000E+00  0.1200E+00
    -30.665  0.0000E+00  0.1200E+00
    -30.389  0.0000E+00  0.1200E+00
    -30.112  0.0000E+00  0.1200E+00
    -29.836  0.0000E+00  0.1200E+00
    -29.559  0.0000E+00  0.1200E+00
    -29.283  0.0000E+00  0.1200E+00
    -29.006  0.0000E+00  0.1200E+00
    -28.730  0.0000E+00  0.1200E+00
    -28.453  0.0000E+00  0.1200E+00
    -28.177  0.0000E+00  0.1200E+00
    -27.900  0.0000E+00  0.1200E+00
    -27.624  0.0000E+00  0.1200E+00
    -27.347  0.0000E+00  0.1200E+00
    -27.071  0.0000E+00  0.1200E+00
    -26.794  0.0000E+00  0.1200E+00
    -26.518  0.0000E+00  0.1200E+00
    -26.241  0.0000E+00  0.1200E+00
    -25.965  0.0000E+00  0.1200E+00
    -25.688  0.0000E+00  0.1200E+00
    -25.412  0.0000E+00  0.1200E+00
    -25.135  0.0000E+00  0.1200E+00
    -24.859  0.0000E+00  0.1200E+00
    -24.582  0.0000E+00  0.1200E+00
    -24.306  0.0000E+00  0.1200E+00
    -24.029  0.0000E+00  0.1200E+00
    -23.753  0.0000E+00  0.1200E+00
    -23.476  0.0000E+00  0.1200E+00
    -23.200  0.0000E+00  0.1200E+00
    -22.923  0.0000E+00  0.1200E+00
    -22.647  0.0000E+00  0.1200E+00
    -22.370  0.0000E+00  0.1200E+00
    -22.094  0.0000E+00  0.1200E+00
    -21.817  0.0000E+00  0.1200E+00
    -21.541  0.0000E+00  0.1200E+00
    -21.264  0.0000E+00  0.1200E+00
    -20.987  0.0000E+00  0.1200E+00
    -20.711  0.0000E+00  0.1200E+00
    -20.434  0.0000E+00  0.1200E+00
    -20.158  0.0000E+00  0.1200E+00
    -19.881  0.0000E+00  0.1200E+00
    -19.605  0.0000E+00  0.1200E+00
    -19.328  0.0000E+00  0.1200E+00
    -19.052  0.0000E+00  0.1200E+00
    -18.775  0.0000E+00  0.1200E+00
    -18.499  0.0000E+00  0.1200E+00
    -18.222  0.0000E+00  0.1200E+00
    -17.946  0.0000E+00  0.1200E+00
    -17.669  0.0000E+00  0.1200E+00
    -17.393  0.0000E+00  0.1200E+00
    -17.116  0.0000E+00  0.1200E+00
    -16.840  0.0000E+00  0.1200E+00
    -16.563  0.0000E+00  0.1200E+00
    -16.287  0.0000E+00  0.1200E+00
    -16.010  0.0000E+00  0.1200E+00
    -15.734  0.0000E+00  0.1200E+00
    -15.457  0.0000E+00  0.1200E+00
    -15.181  0.0000E+00  0.1200E+00
    -14.904  0.0000E+00  0.1200E+00
    -14.628  0.0000E+00  0.1200E+00
    -14.351  0.0000E+00  0.1200E+00
    -14.075  0.0000E+00  0.1200E+00
    -13.798  0.0000E+00  0.1200E+00
    -13.522  0.0000E+00  0.1200E+00
    -13.245  0.0000E+00  0.1200E+00
    -12.969  0.0000E+00  0.1200E+00
    -12.692  0.0000E+00  0.1200E+00
    -12.416  0.0000E+00  0.1200E+00
    -12.139  0.0000E+00  0.1200E+00
    -11.863  0.0000E+00  0.1200E+00
    -11.586  0.0000E+00  0.1200E+00
    -11.310  0.0000E+00  0.1200E+00
    -11.033  0.0000E+00  0.1200E+00
    -10.756  0.0000E+00  0.1200E+00
    -10.480  0.0000E+00  0.1200E+00
    -10.203  0.0000E+00  0.1200E+00
     -9.927  0.0000E+00  0.1200E+00
     -9.650  0.0000E+00  0.1200E+00
     -9.374  0.0000E+00  0.1200E+00
     -9.097  0.0000E+00  0.1200E+00
     -8.821  0.0000E+00  0.1200E+00
     -8.544  0.0000E+00  0.1200E+00
     -8.268  0.0000E+00  0.1200E+00
     -7.991  0.0000E+00  0.1200E+00
     -7.715  0.0000E+00  0.1200E+00
     -7.438  0.0000E+00  0.1200E+00
     -7.162  0.0000E+00  0.1200E+00
     -6.885  0.0000E+00  0.1200E+00
     -6.609  0.0000E+00  0.1200E+00
     -6.332  0.0000E+00  0.1200E+00
     -6.056  0.0000E+00  0.1200E+00
     -5.779  0.0000E+00  0.1200E+00
     -5.503  0.0000E+00  0.1200E+00
     -5.226  0.0000E+00  0.1200E+00
     -4.950  0.0000E+00  0.1200E+00
     -4.673  0.0000E+00  0.1200E+00
     -4.397  0.0000E+00  0.1200E+00
     -4.120  0.0000E+00  0.1200E+00
     -3.844  0.0000E+00  0.1200E+00
     -3.567  0.0000E+00  0.1200E+00
     -3.291  0.0000E+00  0.1200E+00
     -3.014  0.0000E+00  0.1200E+00
     -2.738  0.0000E+00  0.1200E+00
     -2.461  0.0000E+00  0.1200E+00
     -2.185  0.0000E+00  0.1200E+00
     -1.908  0.0000E+00  0.1200E+00
     -1.632  0.0000E+00  0.1200E+00
     -1.355  0.0000E+00  0.1200E+00
     -1.079  0.0000E+00  0.1200E+00
     -0.802  0.0000E+00  0.1200E+00
     -0.525  0.0000E+00  0.1200E+00
     -0.249  0.0000E+00  0.1200E+00
      0.028  0.0000E+00  0.1200E+00
      0.304  0.0000E+00  0.1200E+00
      0.581  0.0000E+00  0.1200E+00
      0.857  0.0000E+00  0.1200E+00
      1.134  0.0000E+00  0.1200E+00
      1.410  0.0000E+00  0.1200E+00
      1.687  0.0000E+00  0.1200E+00
      1.963  0.0000E+00  0.1200E+00
      2.240  0.5211E-05  0.1200E+00
      2.516  0.2624E-03  0.1201E+00
      2.793  0.6498E-03  0.1203E+00
      3.069  0.1162E-02  0.1206E+00
      3.346  0.1081E-02  0.1209E+00
      3.622  0.1709E-02  0.1213E+00
      3.899  0.2059E-02  0.1219E+00
      4.175  0.1936E-02  0.1225E+00
      4.452  0.1174E-02  0.1228E+00
      4.728  0.3223E-02  0.1237E+00
      5.005  0.3934E-02  0.1248E+00
      5.281  0.6921E-02  0.1267E+00
      5.558  0.1113E-01  0.1297E+00
      5.834  0.1890E-01  0.1350E+00
      6.111  0.2447E-01  0.1417E+00
      6.387  0.1996E-01  0.1473E+00
      6.664  0.1760E-01  0.1521E+00
      6.940  0.2245E-01  0.1583E+00
      7.217  0.2900E-01  0.1664E+00
      7.493  0.2878E-01  0.1743E+00
      7.770  0.2215E-01  0.1804E+00
      8.046  0.2886E-01  0.1884E+00
      8.323  0.2231E-01  0.1946E+00
      8.599  0.2187E-01  0.2006E+00
      8.876  0.2816E-01  0.2084E+00
      9.152  0.2911E-01  0.2165E+00
      9.429  0.3442E-01  0.2260E+00
      9.706  0.2582E-01  0.2331E+00
      9.982  0.3477E-01  0.2427E+00
     10.259  0.3148E-01  0.2514E+00
     10.535  0.3019E-01  0.2598E+00
     10.812  0.1245E-01  0.2632E+00
     11.088  0.2095E-01  0.2690E+00
     11.365  0.1970E-01  0.2745E+00
     11.641  0.2313E-01  0.2809E+00
     11.918  0.2224E-01  0.2870E+00
     12.194  0.2026E-01  0.2926E+00
     12.471  0.2001E-01  0.2982E+00
     12.747  0.2472E-01  0.3050E+00
     13.024  0.4271E-01  0.3168E+00
     13.300  0.3019E-01  0.3252E+00
     13.577  0.2120E-01  0.3310E+00
     13.853  0.1284E-01  0.3346E+00
     14.130  0.4727E-02  0.3359E+00
     14.406  0.3149E-02  0.3367E+00
     14.683  0.1754E-02  0.3372E+00
     14.959  0.1411E-02  0.3376E+00
     15.236  0.8112E-02  0.3399E+00
     15.512  0.7977E-02  0.3421E+00
     15.789  0.8274E-02  0.3444E+00
     16.065  0.3679E-02  0.3454E+00
     16.342  0.1987E-02  0.3459E+00
     16.618  0.7126E-02  0.3479E+00
     16.895  0.2246E-02  0.3485E+00
     17.171  0.3742E-02  0.3496E+00
     17.448  0.5807E-02  0.3512E+00
     17.724  0.3405E-02  0.3521E+00
     18.001  0.4745E-02  0.3534E+00
     18.277  0.6790E-02  0.3553E+00
     18.554  0.7722E-02  0.3574E+00
     18.830  0.3451E-02  0.3584E+00
     19.107  0.4162E-02  0.3595E+00
     19.383  0.2525E-03  0.3596E+00
     19.660  0.2466E-02  0.3603E+00
     19.936  0.3781E-02  0.3613E+00
     20.213  0.6540E-02  0.3631E+00
     20.490  0.1044E-01  0.3660E+00
     20.766  0.8880E-02  0.3685E+00
     21.043  0.9387E-02  0.3711E+00
     21.319  0.5346E-02  0.3725E+00
     21.596  0.7963E-02  0.3748E+00
     21.872  0.6565E-02  0.3766E+00
     22.149  0.2779E-02  0.3773E+00
     22.425  0.1063E-01  0.3803E+00
     22.702  0.7120E-02  0.3822E+00
     22.978  0.6402E-02  0.3840E+00
     23.255  0.1036E-01  0.3869E+00
     23.531  0.2845E-02  0.3877E+00
     23.808  0.3899E-02  0.3887E+00
     24.084  0.1099E-01  0.3918E+00
     24.361  0.6689E-02  0.3936E+00
     24.637  0.4903E-02  0.3950E+00
     24.914  0.5509E-02  0.3965E+00
     25.190  0.7406E-02  0.3986E+00
     25.467  0.5081E-02  0.4000E+00
     25.743  0.3997E-02  0.4011E+00
     26.020  0.7660E-02  0.4032E+00
     26.296  0.1156E-01  0.4064E+00
     26.573  0.9051E-02  0.4089E+00
     26.849  0.1074E-01  0.4119E+00
     27.126  0.7212E-02  0.4139E+00
     27.402  0.8379E-02  0.4162E+00
     27.679  0.7749E-02  0.4183E+00
     27.955  0.1727E-01  0.4231E+00
     28.232  0.2300E-01  0.4294E+00
     28.508  0.1855E-01  0.4346E+00
     28.785  0.9443E-02  0.4372E+00
     29.061  0.9240E-02  0.4397E+00
     29.338  0.1432E-01  0.4437E+00
     29.614  0.1658E-01  0.4483E+00
     29.891  0.1170E-01  0.4515E+00
     30.167  0.1987E-01  0.4570E+00
     30.444  0.1468E-01  0.4611E+00
     30.721  0.8822E-02  0.4635E+00
     30.997  0.9779E-02  0.4662E+00
     31.274  0.1064E-01  0.4692E+00
     31.550  0.6137E-02  0.4709E+00
     31.827  0.9980E-02  0.4736E+00
     32.103  0.1548E-02  0.4741E+00
     32.380  0.5050E-02  0.4754E+00
     32.656  0.5260E-02  0.4769E+00
     32.933  0.3201E-02  0.4778E+00
     33.209  0.1652E-03  0.4778E+00
     33.486  0.6073E-02  0.4795E+00
     33.762  0.1043E-02  0.4798E+00
     34.039  0.1489E-03  0.4798E+00
     34.315  0.2183E-03  0.4799E+00
     34.592  0.1754E-03  0.4800E+00
     34.868  0.0000E+00  0.4800E+00
     35.145  0.4028E-06  0.4800E+00
     35.421  0.1804E-03  0.4800E+00
     35.698  0.0000E+00  0.4800E+00
     35.974  0.0000E+00  0.4800E+00
     36.251  0.0000E+00  0.4800E+00
     36.527  0.0000E+00  0.4800E+00
     36.804  0.0000E+00  0.4800E+00
     37.080  0.0000E+00  0.4800E+00
     37.357  0.0000E+00  0.4800E+00
     37.633  0.0000E+00  0.4800E+00
     37.910  0.0000E+00  0.4800E+00
     38.186  0.0000E+00  0.4800E+00
     38.463  0.0000E+00  0.4800E+00
     38.739  0.0000E+00  0.4800E+00
     39.016  0.0000E+00  0.4800E+00
     39.01591777    -43.93808951  301     13.13462500      1.00000000
    -43.938  0.0000E+00  0.0000E+00  0.0000E+00  0.0000E+00  0.0000E+00  0.0000E+00  0.0000E+00  0.0000E+00  0.0000E+00
    -43.662  0.0000E+00  0.0000E+00  0.0000E+00  0.0000E+00  0.0000E+00  0.0000E+00  0.0000E+00  0.0000E+00  0.0000E+00
    -43.385  0.0000E+00  0.0000E+00  0.0000E+00  0.0000E+00  0.0000E+00  0.0000E+00  0.0000E+00  0.0000E+00  0.0000E+00
    -43.109  0.0000E+00  0.0000E+00  0.0000E+00  0.0000E+00  0.0000E+00  0.0000E+00  0.0000E+00  0.0000E+00  0.0000E+00
    -42.832  0.0000E+00  0.0000E+00  0.0000E+00  0.0000E+00  0.0000E+00  0.0000E+00  0.0000E+00  0.0000E+00  0.0000E+00
    -42.556  0.0000E+00  0.0000E+00  0.0000E+00  0.0000E+00  0.0000E+00  0.0000E+00  0.0000E+00  0.0000E+00  0.0000E+00
    -42.279  0.0000E+00  0.0000E+00  0.0000E+00  0.0000E+00  0.0000E+00  0.0000E+00  0.0000E+00  0.0000E+00  0.0000E+00
    -42.002  0.0000E+00  0.0000E+00  0.0000E+00  0.0000E+00  0.0000E+00  0.0000E+00  0.0000E+00  0.0000E+00  0.0000E+00
    -41.726  0.0000E+00  0.0000E+00  0.0000E+00  0.0000E+00  0.0000E+00  0.0000E+00  0.0000E+00  0.0000E+00  0.0000E+00
    -41.449  0.0000E+00  0.0000E+00  0.0000E+00  0.0000E+00  0.0000E+00  0.0000E+00  0.0000E+00  0.0000E+00  0.0000E+00
    -41.173  0.0000E+00  0.0000E+00  0.0000E+00  0.0000E+00  0.0000E+00  0.0000E+00  0.0000E+00  0.0000E+00  0.0000E+00
    -40.896  0.0000E+00  0.0000E+00  0.0000E+00  0.0000E+00  0.0000E+00  0.0000E+00  0.0000E+00  0.0000E+00  0.0000E+00
    -40.620  0.0000E+00  0.0000E+00  0.0000E+00  0.0000E+00  0.0000E+00  0.0000E+00  0.0000E+00  0.0000E+00  0.0000E+00
    -40.343  0.2373E-12  0.1318E-07  0.7954E-09  0.1318E-07  0.1739E-13  0.1831E-13  0.2731E-12  0.1831E-13  0.1739E-13
    -40.067  0.7229E-04  0.1042E+01  0.6822E-01  0.1042E+01  0.3867E-04  0.4039E-05  0.4275E-04  0.4039E-05  0.3867E-04
    -39.790  0.4242E-03  0.2737E+01  0.9077E+00  0.2737E+01  0.1927E-03  0.2766E-04  0.1737E-03  0.2766E-04  0.1927E-03
    -39.514  0.1511E-03  0.3364E+01  0.5307E+01  0.3364E+01  0.1646E-03  0.1067E-03  0.1438E-03  0.1067E-03  0.1646E-03
    -39.237  0.3907E-05  0.1793E-01  0.8791E+00  0.1793E-01  0.5003E-06  0.6847E-05  0.6949E-05  0.6847E-05  0.5003E-06
    -38.961  0.0000E+00  0.0000E+00  0.0000E+00  0.0000E+00  0.0000E+00  0.0000E+00  0.0000E+00  0.0000E+00  0.0000E+00
    -38.684  0.0000E+00  0.0000E+00  0.0000E+00  0.0000E+00  0.0000E+00  0.0000E+00  0.0000E+00  0.0000E+00  0.0000E+00
    -38.408  0.0000E+00  0.0000E+00  0.0000E+00  0.0000E+00  0.0000E+00  0.0000E+00  0.0000E+00  0.0000E+00  0.0000E+00
    -38.131  0.0000E+00  0.0000E+00  0.0000E+00  0.0000E+00  0.0000E+00  0.0000E+00  0.0000E+00  0.0000E+00  0.0000E+00
    -37.855  0.0000E+00  0.0000E+00  0.0000E+00  0.0000E+00  0.0000E+00  0.0000E+00  0.0000E+00  0.0000E+00  0.0000E+00
    -37.578  0.0000E+00  0.0000E+00  0.0000E+00  0.0000E+00  0.0000E+00  0.0000E+00  0.0000E+00  0.0000E+00  0.0000E+00
    -37.302  0.0000E+00  0.0000E+00  0.0000E+00  0.0000E+00  0.0000E+00  0.0000E+00  0.0000E+00  0.0000E+00  0.0000E+00
    -37.025  0.0000E+00  0.0000E+00  0.0000E+00  0.0000E+00  0.0000E+00  0.0000E+00  0.0000E+00  0.0000E+00  0.0000E+00
    -36.749  0.0000E+00  0.0000E+00  0.0000E+00  0.0000E+00  0.0000E+00  0.0000E+00  0.0000E+00  0.0000E+00  0.0000E+00
    -36.472  0.0000E+00  0.0000E+00  0.0000E+00  0.0000E+00  0.0000E+00  0.0000E+00  0.0000E+00  0.0000E+00  0.0000E+00
    -36.196  0.0000E+00  0.0000E+00  0.0000E+00  0.0000E+00  0.0000E+00  0.0000E+00  0.0000E+00  0.0000E+00  0.0000E+00
    -35.919  0.0000E+00  0.0000E+00  0.0000E+00  0.0000E+00  0.0000E+00  0.0000E+00  0.0000E+00  0.0000E+00  0.0000E+00
    -35.643  0.0000E+00  0.0000E+00  0.0000E+00  0.0000E+00  0.0000E+00  0.0000E+00  0.0000E+00  0.0000E+00  0.0000E+00
    -35.366  0.0000E+00  0.0000E+00  0.0000E+00  0.0000E+00  0.0000E+00  0.0000E+00  0.0000E+00  0.0000E+00  0.0000E+00
    -35.090  0.0000E+00  0.0000E+00  0.0000E+00  0.0000E+00  0.0000E+00  0.0000E+00  0.0000E+00  0.0000E+00  0.0000E+00
    -34.813  0.0000E+00  0.0000E+00  0.0000E+00  0.0000E+00  0.0000E+00  0.0000E+00  0.0000E+00  0.0000E+00  0.0000E+00
    -34.537  0.0000E+00  0.0000E+00  0.0000E+00  0.0000E+00  0.0000E+00  0.0000E+00  0.0000E+00  0.0000E+00  0.0000E+00
    -34.260  0.0000E+00  0.0000E+00  0.0000E+00  0.0000E+00  0.0000E+00  0.0000E+00  0.0000E+00  0.0000E+00  0.0000E+00
    -33.984  0.0000E+00  0.0000E+00  0.0000E+00  0.0000E+00  0.0000E+00  0.0000E+00  0.0000E+00  0.0000E+00  0.0000E+00
    -33.707  0.0000E+00  0.0000E+00  0.0000E+00  0.0000E+00  0.0000E+00  0.0000E+00  0.0000E+00  0.0000E+00  0.0000E+00
    -33.431  0.0000E+00  0.0000E+00  0.0000E+00  0.0000E+00  0.0000E+00  0.0000E+00  0.0000E+00  0.0000E+00  0.0000E+00
    -33.154  0.0000E+00  0.0000E+00  0.0000E+00  0.0000E+00  0.0000E+00  0.0000E+00  0.0000E+00  0.0000E+00  0.0000E+00
    -32.878  0.0000E+00  0.0000E+00  0.0000E+00  0.0000E+00  0.0000E+00  0.0000E+00  0.0000E+00  0.0000E+00  0.0000E+00
    -32.601  0.0000E+00  0.0000E+00  0.0000E+00  0.0000E+00  0.0000E+00  0.0000E+00  0.0000E+00  0.0000E+00  0.0000E+00
    -32.325  0.0000E+00  0.0000E+00  0.0000E+00  0.0000E+00  0.0000E+00  0.0000E+00  0.0000E+00  0.0000E+00  0.0000E+00
    -32.048  0.0000E+00  0.0000E+00  0.0000E+00  0.0000E+00  0.0000E+00  0.0000E+00  0.0000E+00  0.0000E+00  0.0000E+00
    -31.772  0.0000E+00  0.0000E+00  0.0000E+00  0.0000E+00  0.0000E+00  0.0000E+00  0.0000E+00  0.0000E+00  0.0000E+00
    -31.495  0.0000E+00  0.0000E+00  0.0000E+00  0.0000E+00  0.0000E+00  0.0000E+00  0.0000E+00  0.0000E+00  0.0000E+00
    -31.218  0.0000E+00  0.0000E+00  0.0000E+00  0.0000E+00  0.0000E+00  0.0000E+00  0.0000E+00  0.0000E+00  0.0000E+00
    -30.942  0.0000E+00  0.0000E+00  0.0000E+00  0.0000E+00  0.0000E+00  0.0000E+00  0.0000E+00  0.0000E+00  0.0000E+00
    -30.665  0.0000E+00  0.0000E+00  0.0000E+00  0.0000E+00  0.0000E+00  0.0000E+00  0.0000E+00  0.0000E+00  0.0000E+00
    -30.389  0.0000E+00  0.0000E+00  0.0000E+00  0.0000E+00  0.0000E+00  0.0000E+00  0.0000E+00  0.0000E+00  0.0000E+00
    -30.112  0.0000E+00  0.0000E+00  0.0000E+00  0.0000E+00  0.0000E+00  0.0000E+00  0.0000E+00  0.0000E+00  0.0000E+00
    -29.836  0.0000E+00  0.0000E+00  0.0000E+00  0.0000E+00  0.0000E+00  0.0000E+00  0.0000E+00  0.0000E+00  0.0000E+00
    -29.559  0.0000E+00  0.0000E+00  0.0000E+00  0.0000E+00  0.0000E+00  0.0000E+00  0.0000E+00  0.0000E+00  0.0000E+00
    -29.283  0.0000E+00  0.0000E+00  0.0000E+00  0.0000E+00  0.0000E+00  0.0000E+00  0.0000E+00  0.0000E+00  0.0000E+00
    -29.006  0.0000E+00  0.0000E+00  0.0000E+00  0.0000E+00  0.0000E+00  0.0000E+00  0.0000E+00  0.0000E+00  0.0000E+00
    -28.730  0.0000E+00  0.0000E+00  0.0000E+00  0.0000E+00  0.0000E+00  0.0000E+00  0.0000E+00  0.0000E+00  0.0000E+00
    -28.453  0.0000E+00  0.0000E+00  0.0000E+00  0.0000E+00  0.0000E+00  0.0000E+00  0.0000E+00  0.0000E+00  0.0000E+00
    -28.177  0.0000E+00  0.0000E+00  0.0000E+00  0.0000E+00  0.0000E+00  0.0000E+00  0.0000E+00  0.0000E+00  0.0000E+00
    -27.900  0.0000E+00  0.0000E+00  0.0000E+00  0.0000E+00  0.0000E+00  0.0000E+00  0.0000E+00  0.0000E+00  0.0000E+00
    -27.624  0.0000E+00  0.0000E+00  0.0000E+00  0.0000E+00  0.0000E+00  0.0000E+00  0.0000E+00  0.0000E+00  0.0000E+00
    -27.347  0.0000E+00  0.0000E+00  0.0000E+00  0.0000E+00  0.0000E+00  0.0000E+00  0.0000E+00  0.0000E+00  0.0000E+00
    -27.071  0.0000E+00  0.0000E+00  0.0000E+00  0.0000E+00  0.0000E+00  0.0000E+00  0.0000E+00  0.0000E+00  0.0000E+00
    -26.794  0.0000E+00  0.0000E+00  0.0000E+00  0.0000E+00  0.0000E+00  0.0000E+00  0.0000E+00  0.0000E+00  0.0000E+00
    -26.518  0.0000E+00  0.0000E+00  0.0000E+00  0.0000E+00  0.0000E+00  0.0000E+00  0.0000E+00  0.0000E+00  0.0000E+00
    -26.241  0.0000E+00  0.0000E+00  0.0000E+00  0.0000E+00  0.0000E+00  0.0000E+00  0.0000E+00  0.0000E+00  0.0000E+00
    -25.965  0.0000E+00  0.0000E+00  0.0000E+00  0.0000E+00  0.0000E+00  0.0000E+00  0.0000E+00  0.0000E+00  0.0000E+00
    -25.688  0.0000E+00  0.0000E+00  0.0000E+00  0.0000E+00  0.0000E+00  0.0000E+00  0.0000E+00  0.0000E+00  0.0000E+00
    -25.412  0.0000E+00  0.0000E+00  0.0000E+00  0.0000E+00  0.0000E+00  0.0000E+00  0.0000E+00  0.0000E+00  0.0000E+00
    -25.135  0.0000E+00  0.0000E+00  0.0000E+00  0.0000E+00  0.0000E+00  0.0000E+00  0.0000E+00  0.0000E+00  0.0000E+00
    -24.859  0.0000E+00  0.0000E+00  0.0000E+00  0.0000E+00  0.0000E+00  0.0000E+00  0.0000E+00  0.0000E+00  0.0000E+00
    -24.582  0.0000E+00  0.0000E+00  0.0000E+00  0.0000E+00  0.0000E+00  0.0000E+00  0.0000E+00  0.0000E+00  0.0000E+00
    -24.306  0.0000E+00  0.0000E+00  0.0000E+00  0.0000E+00  0.0000E+00  0.0000E+00  0.0000E+00  0.0000E+00  0.0000E+00
    -24.029  0.0000E+00  0.0000E+00  0.0000E+00  0.0000E+00  0.0000E+00  0.0000E+00  0.0000E+00  0.0000E+00  0.0000E+00
    -23.753  0.0000E+00  0.0000E+00  0.0000E+00  0.0000E+00  0.0000E+00  0.0000E+00  0.0000E+00  0.0000E+00  0.0000E+00
    -23.476  0.0000E+00  0.0000E+00  0.0000E+00  0.0000E+00  0.0000E+00  0.0000E+00  0.0000E+00  0.0000E+00  0.0000E+00
    -23.200  0.0000E+00  0.0000E+00  0.0000E+00  0.0000E+00  0.0000E+00  0.0000E+00  0.0000E+00  0.0000E+00  0.0000E+00
    -22.923  0.0000E+00  0.0000E+00  0.0000E+00  0.0000E+00  0.0000E+00  0.0000E+00  0.0000E+00  0.0000E+00  0.0000E+00
    -22.647  0.0000E+00  0.0000E+00  0.0000E+00  0.0000E+00  0.0000E+00  0.0000E+00  0.0000E+00  0.0000E+00  0.0000E+00
    -22.370  0.0000E+00  0.0000E+00  0.0000E+00  0.0000E+00  0.0000E+00  0.0000E+00  0.0000E+00  0.0000E+00  0.0000E+00
    -22.094  0.0000E+00  0.0000E+00  0.0000E+00  0.0000E+00  0.0000E+00  0.0000E+00  0.0000E+00  0.0000E+00  0.0000E+00
    -21.817  0.0000E+00  0.0000E+00  0.0000E+00  0.0000E+00  0.0000E+00  0.0000E+00  0.0000E+00  0.0000E+00  0.0000E+00
    -21.541  0.0000E+00  0.0000E+00  0.0000E+00  0.0000E+00  0.0000E+00  0.0000E+00  0.0000E+00  0.0000E+00  0.0000E+00
    -21.264  0.0000E+00  0.0000E+00  0.0000E+00  0.0000E+00  0.0000E+00  0.0000E+00  0.0000E+00  0.0000E+00  0.0000E+00
    -20.987  0.0000E+00  0.0000E+00  0.0000E+00  0.0000E+00  0.0000E+00  0.0000E+00  0.0000E+00  0.0000E+00  0.0000E+00
    -20.711  0.0000E+00  0.0000E+00  0.0000E+00  0.0000E+00  0.0000E+00  0.0000E+00  0.0000E+00  0.0000E+00  0.0000E+00
    -20.434  0.0000E+00  0.0000E+00  0.0000E+00  0.0000E+00  0.0000E+00  0.0000E+00  0.0000E+00  0.0000E+00  0.0000E+00
    -20.158  0.0000E+00  0.0000E+00  0.0000E+00  0.0000E+00  0.0000E+00  0.0000E+00  0.0000E+00  0.0000E+00  0.0000E+00
    -19.881  0.0000E+00  0.0000E+00  0.0000E+00  0.0000E+00  0.0000E+00  0.0000E+00  0.0000E+00  0.0000E+00  0.0000E+00
    -19.605  0.0000E+00  0.0000E+00  0.0000E+00  0.0000E+00  0.0000E+00  0.0000E+00  0.0000E+00  0.0000E+00  0.0000E+00
    -19.328  0.0000E+00  0.0000E+00  0.0000E+00  0.0000E+00  0.0000E+00  0.0000E+00  0.0000E+00  0.0000E+00  0.0000E+00
    -19.052  0.0000E+00  0.0000E+00  0.0000E+00  0.0000E+00  0.0000E+00  0.0000E+00  0.0000E+00  0.0000E+00  0.0000E+00
    -18.775  0.0000E+00  0.0000E+00  0.0000E+00  0.0000E+00  0.0000E+00  0.0000E+00  0.0000E+00  0.0000E+00  0.0000E+00
    -18.499  0.0000E+00  0.0000E+00  0.0000E+00  0.0000E+00  0.0000E+00  0.0000E+00  0.0000E+00  0.0000E+00  0.0000E+00
    -18.222  0.0000E+00  0.0000E+00  0.0000E+00  0.0000E+00  0.0000E+00  0.0000E+00  0.0000E+00  0.0000E+00  0.0000E+00
    -17.946  0.0000E+00  0.0000E+00  0.0000E+00  0.0000E+00  0.0000E+00  0.0000E+00  0.0000E+00  0.0000E+00  0.0000E+00
    -17.669  0.0000E+00  0.0000E+00  0.0000E+00  0.0000E+00  0.0000E+00  0.0000E+00  0.0000E+00  0.0000E+00  0.0000E+00
    -17.393  0.0000E+00  0.0000E+00  0.0000E+00  0.0000E+00  0.0000E+00  0.0000E+00  0.0000E+00  0.0000E+00  0.0000E+00
    -17.116  0.0000E+00  0.0000E+00  0.0000E+00  0.0000E+00  0.0000E+00  0.0000E+00  0.0000E+00  0.0000E+00  0.0000E+00
    -16.840  0.0000E+00  0.0000E+00  0.0000E+00  0.0000E+00  0.0000E+00  0.0000E+00  0.0000E+00  0.0000E+00  0.0000E+00
    -16.563  0.0000E+00  0.0000E+00  0.0000E+00  0.0000E+00  0.0000E+00  0.0000E+00  0.0000E+00  0.0000E+00  0.0000E+00
    -16.287  0.0000E+00  0.0000E+00  0.0000E+00  0.0000E+00  0.0000E+00  0.0000E+00  0.0000E+00  0.0000E+00  0.0000E+00
    -16.010  0.0000E+00  0.0000E+00  0.0000E+00  0.0000E+00  0.0000E+00  0.0000E+00  0.0000E+00  0.0000E+00  0.0000E+00
    -15.734  0.0000E+00  0.0000E+00  0.0000E+00  0.0000E+00  0.0000E+00  0.0000E+00  0.0000E+00  0.0000E+00  0.0000E+00
    -15.457  0.0000E+00  0.0000E+00  0.0000E+00  0.0000E+00  0.0000E+00  0.0000E+00  0.0000E+00  0.0000E+00  0.0000E+00
    -15.181  0.0000E+00  0.0000E+00  0.0000E+00  0.0000E+00  0.0000E+00  0.0000E+00  0.0000E+00  0.0000E+00  0.0000E+00
    -14.904  0.0000E+00  0.0000E+00  0.0000E+00  0.0000E+00  0.0000E+00  0.0000E+00  0.0000E+00  0.0000E+00  0.0000E+00
    -14.628  0.0000E+00  0.0000E+00  0.0000E+00  0.0000E+00  0.0000E+00  0.0000E+00  0.0000E+00  0.0000E+00  0.0000E+00
    -14.351  0.0000E+00  0.0000E+00  0.0000E+00  0.0000E+00  0.0000E+00  0.0000E+00  0.0000E+00  0.0000E+00  0.0000E+00
    -14.075  0.0000E+00  0.0000E+00  0.0000E+00  0.0000E+00  0.0000E+00  0.0000E+00  0.0000E+00  0.0000E+00  0.0000E+00
    -13.798  0.0000E+00  0.0000E+00  0.0000E+00  0.0000E+00  0.0000E+00  0.0000E+00  0.0000E+00  0.0000E+00  0.0000E+00
    -13.522  0.0000E+00  0.0000E+00  0.0000E+00  0.0000E+00  0.0000E+00  0.0000E+00  0.0000E+00  0.0000E+00  0.0000E+00
    -13.245  0.0000E+00  0.0000E+00  0.0000E+00  0.0000E+00  0.0000E+00  0.0000E+00  0.0000E+00  0.0000E+00  0.0000E+00
    -12.969  0.0000E+00  0.0000E+00  0.0000E+00  0.0000E+00  0.0000E+00  0.0000E+00  0.0000E+00  0.0000E+00  0.0000E+00
    -12.692  0.0000E+00  0.0000E+00  0.0000E+00  0.0000E+00  0.0000E+00  0.0000E+00  0.0000E+00  0.0000E+00  0.0000E+00
    -12.416  0.0000E+00  0.0000E+00  0.0000E+00  0.0000E+00  0.0000E+00  0.0000E+00  0.0000E+00  0.0000E+00  0.0000E+00
    -12.139  0.0000E+00  0.0000E+00  0.0000E+00  0.0000E+00  0.0000E+00  0.0000E+00  0.0000E+00  0.0000E+00  0.0000E+00
    -11.863  0.0000E+00  0.0000E+00  0.0000E+00  0.0000E+00  0.0000E+00  0.0000E+00  0.0000E+00  0.0000E+00  0.0000E+00
    -11.586  0.0000E+00  0.0000E+00  0.0000E+00  0.0000E+00  0.0000E+00  0.0000E+00  0.0000E+00  0.0000E+00  0.0000E+00
    -11.310  0.0000E+00  0.0000E+00  0.0000E+00  0.0000E+00  0.0000E+00  0.0000E+00  0.0000E+00  0.0000E+00  0.0000E+00
    -11.033  0.0000E+00  0.0000E+00  0.0000E+00  0.0000E+00  0.0000E+00  0.0000E+00  0.0000E+00  0.0000E+00  0.0000E+00
    -10.756  0.0000E+00  0.0000E+00  0.0000E+00  0.0000E+00  0.0000E+00  0.0000E+00  0.0000E+00  0.0000E+00  0.0000E+00
    -10.480  0.0000E+00  0.0000E+00  0.0000E+00  0.0000E+00  0.0000E+00  0.0000E+00  0.0000E+00  0.0000E+00  0.0000E+00
    -10.203  0.0000E+00  0.0000E+00  0.0000E+00  0.0000E+00  0.0000E+00  0.0000E+00  0.0000E+00  0.0000E+00  0.0000E+00
     -9.927  0.0000E+00  0.0000E+00  0.0000E+00  0.0000E+00  0.0000E+00  0.0000E+00  0.0000E+00  0.0000E+00  0.0000E+00
     -9.650  0.0000E+00  0.0000E+00  0.0000E+00  0.0000E+00  0.0000E+00  0.0000E+00  0.0000E+00  0.0000E+00  0.0000E+00
     -9.374  0.0000E+00  0.0000E+00  0.0000E+00  0.0000E+00  0.0000E+00  0.0000E+00  0.0000E+00  0.0000E+00  0.0000E+00
     -9.097  0.0000E+00  0.0000E+00  0.0000E+00  0.0000E+00  0.0000E+00  0.0000E+00  0.0000E+00  0.0000E+00  0.0000E+00
     -8.821  0.0000E+00  0.0000E+00  0.0000E+00  0.0000E+00  0.0000E+00  0.0000E+00  0.0000E+00  0.0000E+00  0.0000E+00
     -8.544  0.0000E+00  0.0000E+00  0.0000E+00  0.0000E+00  0.0000E+00  0.0000E+00  0.0000E+00  0.0000E+00  0.0000E+00
     -8.268  0.0000E+00  0.0000E+00  0.0000E+00  0.0000E+00  0.0000E+00  0.0000E+00  0.0000E+00  0.0000E+00  0.0000E+00
     -7.991  0.0000E+00  0.0000E+00  0.0000E+00  0.0000E+00  0.0000E+00  0.0000E+00  0.0000E+00  0.0000E+00  0.0000E+00
     -7.715  0.0000E+00  0.0000E+00  0.0000E+00  0.0000E+00  0.0000E+00  0.0000E+00  0.0000E+00  0.0000E+00  0.0000E+00
     -7.438  0.0000E+00  0.0000E+00  0.0000E+00  0.0000E+00  0.0000E+00  0.0000E+00  0.0000E+00  0.0000E+00  0.0000E+00
     -7.162  0.0000E+00  0.0000E+00  0.0000E+00  0.0000E+00  0.0000E+00  0.0000E+00  0.0000E+00  0.0000E+00  0.0000E+00
     -6.885  0.0000E+00  0.0000E+00  0.0000E+00  0.0000E+00  0.0000E+00  0.0000E+00  0.0000E+00  0.0000E+00  0.0000E+00
     -6.609  0.0000E+00  0.0000E+00  0.0000E+00  0.0000E+00  0.0000E+00  0.0000E+00  0.0000E+00  0.0000E+00  0.0000E+00
     -6.332  0.0000E+00  0.0000E+00  0.0000E+00  0.0000E+00  0.0000E+00  0.0000E+00  0.0000E+00  0.0000E+00  0.0000E+00
     -6.056  0.0000E+00  0.0000E+00  0.0000E+00  0.0000E+00  0.0000E+00  0.0000E+00  0.0000E+00  0.0000E+00  0.0000E+00
     -5.779  0.0000E+00  0.0000E+00  0.0000E+00  0.0000E+00  0.0000E+00  0.0000E+00  0.0000E+00  0.0000E+00  0.0000E+00
     -5.503  0.0000E+00  0.0000E+00  0.0000E+00  0.0000E+00  0.0000E+00  0.0000E+00  0.0000E+00  0.0000E+00  0.0000E+00
     -5.226  0.0000E+00  0.0000E+00  0.0000E+00  0.0000E+00  0.0000E+00  0.0000E+00  0.0000E+00  0.0000E+00  0.0000E+00
     -4.950  0.0000E+00  0.0000E+00  0.0000E+00  0.0000E+00  0.0000E+00  0.0000E+00  0.0000E+00  0.0000E+00  0.0000E+00
     -4.673  0.0000E+00  0.0000E+00  0.0000E+00  0.0000E+00  0.0000E+00  0.0000E+00  0.0000E+00  0.0000E+00  0.0000E+00
     -4.397  0.0000E+00  0.0000E+00  0.0000E+00  0.0000E+00  0.0000E+00  0.0000E+00  0.0000E+00  0.0000E+00  0.0000E+00
     -4.120  0.0000E+00  0.0000E+00  0.0000E+00  0.0000E+00  0.0000E+00  0.0000E+00  0.0000E+00  0.0000E+00  0.0000E+00
     -3.844  0.0000E+00  0.0000E+00  0.0000E+00  0.0000E+00  0.0000E+00  0.0000E+00  0.0000E+00  0.0000E+00  0.0000E+00
     -3.567  0.0000E+00  0.0000E+00  0.0000E+00  0.0000E+00  0.0000E+00  0.0000E+00  0.0000E+00  0.0000E+00  0.0000E+00
     -3.291  0.0000E+00  0.0000E+00  0.0000E+00  0.0000E+00  0.0000E+00  0.0000E+00  0.0000E+00  0.0000E+00  0.0000E+00
     -3.014  0.0000E+00  0.0000E+00  0.0000E+00  0.0000E+00  0.0000E+00  0.0000E+00  0.0000E+00  0.0000E+00  0.0000E+00
     -2.738  0.0000E+00  0.0000E+00  0.0000E+00  0.0000E+00  0.0000E+00  0.0000E+00  0.0000E+00  0.0000E+00  0.0000E+00
     -2.461  0.0000E+00  0.0000E+00  0.0000E+00  0.0000E+00  0.0000E+00  0.0000E+00  0.0000E+00  0.0000E+00  0.0000E+00
     -2.185  0.0000E+00  0.0000E+00  0.0000E+00  0.0000E+00  0.0000E+00  0.0000E+00  0.0000E+00  0.0000E+00  0.0000E+00
     -1.908  0.0000E+00  0.0000E+00  0.0000E+00  0.0000E+00  0.0000E+00  0.0000E+00  0.0000E+00  0.0000E+00  0.0000E+00
     -1.632  0.0000E+00  0.0000E+00  0.0000E+00  0.0000E+00  0.0000E+00  0.0000E+00  0.0000E+00  0.0000E+00  0.0000E+00
     -1.355  0.0000E+00  0.0000E+00  0.0000E+00  0.0000E+00  0.0000E+00  0.0000E+00  0.0000E+00  0.0000E+00  0.0000E+00
     -1.079  0.0000E+00  0.0000E+00  0.0000E+00  0.0000E+00  0.0000E+00  0.0000E+00  0.0000E+00  0.0000E+00  0.0000E+00
     -0.802  0.0000E+00  0.0000E+00  0.0000E+00  0.0000E+00  0.0000E+00  0.0000E+00  0.0000E+00  0.0000E+00  0.0000E+00