    2    2  100    1
  0.1428528E+02  0.2670383E-09  0.2670383E-09  0.4626376E-09  0.5000000E-15
  1.000000000000000E-004
  CAR 
 Pt-hcc                                  
     32     70     24
 
  0.0000000E+00  0.0000000E+00  0.0000000E+00  0.1250000E-02
      1        -39.940651   1.000000
      2        -39.617539   1.000000
      3        -39.617537   1.000000
      4        -39.559640   1.000000
      5        -39.559638   1.000000
      6        -39.454161   1.000000
      7          2.295322   1.000000
      8          5.028882   1.000000
      9          8.520038   1.000000
     10          9.109322   1.000000
     11          9.109323   1.000000
     12          9.548410   1.000000
     13          9.548411   1.000000
     14         11.002168   1.000000
     15         11.002169   1.000000
     16         11.977440   1.000000
     17         12.881366   1.000000
     18         12.881367   1.000000
     19         18.528760   0.000000
     20         28.010680   0.000000
     21         28.772207   0.000000
     22         30.368745   0.000000
     23         35.245281   0.000000
     24         35.245281   0.000000
 
  0.1000000E+00 -0.1387779E-16  0.0000000E+00  0.7500000E-02
      1        -39.922677   1.000000
      2        -39.669931   1.000000
      3        -39.632470   1.000000
      4        -39.613351   1.000000
      5        -39.569715   1.000000
      6        -39.457441   1.000000
      7          2.694053   1.000000
      8          5.393798   1.000000
      9          8.439429   1.000000
     10          9.117507   1.000000
     11          9.369130   1.000000
     12          9.428821   1.000000
     13          9.852882   1.000000
     14         10.264589   1.000000
     15         10.797547   1.000000
     16         10.929877   1.000000
     17         12.961760   0.999999
     18         14.710119   0.000000
     19         18.476524   0.000000
     20         28.623741   0.000000
     21         29.356316   0.000000
     22         30.947771   0.000000
     23         33.335982   0.000000
     24         33.391863   0.000000
 
  0.2000000E+00 -0.2775558E-16  0.0000000E+00  0.7500000E-02
      1        -39.874805   1.000000
      2        -39.807593   1.000000
      3        -39.751459   1.000000
      4        -39.671521   1.000000
      5        -39.597558   1.000000
      6        -39.470581   1.000000
      7          3.768230   1.000000
      8          6.177583   1.000000
      9          8.173637   1.000000
     10          8.695649   1.000000
     11          8.791006   1.000000
     12          9.845058   1.000000
     13         10.336719   1.000000
     14         10.345994   1.000000
     15         10.347814   1.000000
     16         10.711968   1.000000
     17         13.088689   0.903072
     18         17.092723   0.000000
     19         18.352764   0.000000
     20         27.945473   0.000000
     21         29.985939   0.000000
     22         31.107521   0.000000
     23         31.554953   0.000000
     24         31.678728   0.000000
 
  0.3000000E+00 -0.5551115E-16  0.0000000E+00  0.7500000E-02
      1        -39.975680   1.000000
      2        -39.917922   1.000000
      3        -39.806893   1.000000
      4        -39.718727   1.000000
      5        -39.633113   1.000000
      6        -39.494345   1.000000
      7          5.034065   1.000000
      8          6.260395   1.000000
      9          7.479261   1.000000
     10          8.488102   1.000000
     11          8.915416   1.000000
     12          9.755094   1.000000
     13          9.884952   1.000000
     14         11.188213   1.000000
     15         11.652809   1.000000
     16         11.938728   1.000000
     17         13.157962   0.254606
     18         18.387034   0.000000
     19         19.480988   0.000000
     20         24.235821   0.000000
     21         28.439827   0.000000
     22         28.532526   0.000000
     23         31.278492   0.000000
     24         31.807323   0.000000
 
  0.4000000E+00 -0.8326673E-16  0.0000000E+00  0.7500000E-02
      1        -40.111431   1.000000
      2        -40.048193   1.000000
      3        -39.755717   1.000000
      4        -39.739037   1.000000
      5        -39.661683   1.000000
      6        -39.526868   1.000000
      7          5.645543   1.000000
      8          5.905876   1.000000
      9          6.720845   1.000000
     10          9.093298   1.000000
     11          9.325376   1.000000
     12          9.559554   1.000000
     13          9.828285   1.000000
     14         12.945620   1.000000
     15         13.162883   0.212074
     16         13.173921   0.133185
     17         13.342413   0.000000
     18         19.074483   0.000000
     19         20.487169   0.000000
     20         21.535304   0.000000
     21         26.406992   0.000000
     22         26.621948   0.000000
     23         27.186378   0.000000
     24         30.598364   0.000000
 
  0.5000000E+00 -0.5551115E-16  0.0000000E+00  0.3750000E-02
      1        -40.162930   1.000000
      2        -40.098133   1.000000
      3        -39.770090   1.000000
      4        -39.705411   1.000000
      5        -39.673011   1.000000
      6        -39.547321   1.000000
      7          5.647211   1.000000
      8          5.823072   1.000000
      9          6.463024   1.000000
     10          9.170445   1.000000
     11          9.443271   1.000000
     12          9.700789   1.000000
     13         10.029787   1.000000
     14         13.173337   0.136773
     15         13.499223   0.000000
     16         13.743089   0.000000
     17         15.615262   0.000000
     18         17.247697   0.000000
     19         20.945895   0.000000
     20         22.482919   0.000000
     21         23.593355   0.000000
     22         25.514259   0.000000
     23         26.659134   0.000000
     24         29.974129   0.000000
 
  0.1000000E+00  0.1000000E+00  0.0000000E+00  0.7500000E-02
      1        -39.889950   1.000000
      2        -39.755881   1.000000
      3        -39.719676   1.000000
      4        -39.650571   1.000000
      5        -39.596457   1.000000
      6        -39.466084   1.000000
      7          3.441095   1.000000
      8          6.026871   1.000000
      9          8.120455   1.000000
     10          9.022473   1.000000
     11          9.158433   1.000000
     12          9.373021   1.000000
     13         10.098261   1.000000
     14         10.106718   1.000000
     15         10.537419   1.000000
     16         10.859127   1.000000
     17         12.990537   0.999977
     18         16.471261   0.000000
     19         18.390700   0.000000
     20         29.030598   0.000000
     21         30.143581   0.000000
     22         30.343398   0.000000
     23         31.481019   0.000000
     24         32.591186   0.000000
 
  0.2000000E+00  0.1000000E+00  0.0000000E+00  0.1500000E-01
      1        -39.897579   1.000000
      2        -39.860645   1.000000
      3        -39.831883   1.000000
      4        -39.705772   1.000000
      5        -39.639168   1.000000
      6        -39.484655   1.000000
      7          4.702070   1.000000
      8          6.670171   1.000000
      9          7.922531   1.000000
     10          7.953984   1.000000
     11          8.714059   1.000000
     12          9.514969   1.000000
     13         10.087639   1.000000
     14         10.430064   1.000000
     15         11.340170   1.000000
     16         11.826731   1.000000
     17         12.995310   0.999959
     18         18.370137   0.000000
     19         18.747724   0.000000
     20         26.165656   0.000000
     21         28.020596   0.000000
     22         29.521939   0.000000
     23         31.692385   0.000000
     24         32.871778   0.000000
 
  0.3000000E+00  0.1000000E+00  0.0000000E+00  0.1500000E-01
      1        -40.044017   1.000000
      2        -39.991944   1.000000
      3        -39.762518   1.000000
      4        -39.762031   1.000000
      5        -39.679657   1.000000
      6        -39.514449   1.000000
      7          5.779489   1.000000
      8          6.364058   1.000000
      9          7.056859   1.000000
     10          8.511416   1.000000
     11          9.172256   1.000000
     12          9.232831   1.000000
     13          9.855955   1.000000
     14         11.373244   1.000000
     15         12.619385   1.000000
     16         12.982198   0.999992
     17         13.488231   0.000000
     18         18.908181   0.000000
     19         21.025017   0.000000
     20         22.197985   0.000000
     21         25.747718   0.000000
     22         28.098648   0.000000
     23         29.361786   0.000000
     24         31.017436   0.000000
 
  0.4000000E+00  0.1000000E+00  0.0000000E+00  0.1500000E-01
      1        -40.134286   1.000000
      2        -40.071332   1.000000
      3        -39.796084   1.000000
      4        -39.705592   1.000000
      5        -39.704420   1.000000
      6        -39.546861   1.000000
      7          5.986028   1.000000
      8          6.131571   1.000000
      9          6.587213   1.000000
     10          9.113106   1.000000
     11          9.386599   1.000000
     12          9.409850   1.000000
     13          9.795521   1.000000
     14         12.831891   1.000000
     15         12.962666   0.999999
     16         13.289221   0.000006
     17         15.386641   0.000000
     18         18.584123   0.000000
     19         20.637764   0.000000
     20         22.738963   0.000000
     21         23.535568   0.000000
     22         26.033330   0.000000
     23         27.207906   0.000000
     24         29.893818   0.000000
 
  0.2000000E+00  0.2000000E+00  0.0000000E+00  0.7500000E-02
      1        -39.981466   1.000000
      2        -39.978018   1.000000
      3        -39.771210   1.000000
      4        -39.769520   1.000000
      5        -39.711540   1.000000
      6        -39.510207   1.000000
      7          5.996407   1.000000
      8          7.290710   1.000000
      9          7.341538   1.000000
     10          7.399899   1.000000
     11          8.945297   1.000000
     12          8.972364   1.000000
     13         10.080163   1.000000
     14         10.506428   1.000000
     15         12.597734   1.000000
     16         12.778571   1.000000
     17         13.580841   0.000000
     18         18.920385   0.000000
     19         20.929780   0.000000
     20         23.641168   0.000000
     21         24.513368   0.000000
     22         28.939099   0.000000
     23         30.928084   0.000000
     24         31.129542   0.000000
 
  0.3000000E+00  0.2000000E+00  0.0000000E+00  0.1500000E-01
      1        -40.068740   1.000000
      2        -40.025561   1.000000
      3        -39.843493   1.000000
      4        -39.772811   1.000000
      5        -39.706184   1.000000
      6        -39.546083   1.000000
      7          6.773987   1.000000
      8          6.836061   1.000000
      9          6.941419   1.000000
     10          8.274959   1.000000
     11          8.780304   1.000000
     12          9.510065   1.000000
     13          9.599105   1.000000
     14         11.436158   1.000000
     15         12.614240   1.000000
     16         13.123628   0.622118
     17         15.481829   0.000000
     18         19.933212   0.000000
     19         20.845986   0.000000
     20         22.376605   0.000000
     21         23.148892   0.000000
     22         27.846809   0.000000
     23         28.330003   0.000000
     24         29.720958   0.000000
 
  0.4000000E+00  0.2000000E+00  0.0000000E+00  0.7500000E-02
      1        -40.100903   1.000000
      2        -40.037416   1.000000
      3        -39.879190   1.000000
      4        -39.796412   1.000000
      5        -39.669408   1.000000
      6        -39.571809   1.000000
      7          6.674438   1.000000
      8          6.760955   1.000000
      9          6.886607   1.000000
     10          8.922404   1.000000
     11          8.942023   1.000000
     12          9.072221   1.000000
     13          9.905086   1.000000
     14         12.334228   1.000000
     15         12.554304   1.000000
     16         12.899718   1.000000
     17         17.115242   0.000000
     18         17.777226   0.000000
     19         21.021264   0.000000
     20         22.870248   0.000000
     21         24.387244   0.000000
     22         25.657282   0.000000
     23         27.866836   0.000000
     24         28.962685   0.000000
 
  0.3000000E+00  0.3000000E+00  0.0000000E+00  0.7500000E-02
      1        -40.048946   1.000000
      2        -40.000559   1.000000
      3        -39.933169   1.000000
      4        -39.872236   1.000000
      5        -39.649030   1.000000
      6        -39.588197   1.000000
      7          6.774428   1.000000
      8          7.359518   1.000000
      9          7.636453   1.000000
     10          8.138304   1.000000
     11          8.727714   1.000000
     12          9.042500   1.000000
     13         10.013905   1.000000
     14         11.861642   1.000000
     15         12.354836   1.000000
     16         12.706883   1.000000
     17         17.186972   0.000000
     18         18.431527   0.000000
     19         19.849567   0.000000
     20         23.867279   0.000000
     21         25.428487   0.000000
     22         26.788708   0.000000
     23         27.754846   0.000000
     24         27.961280   0.000000
 
  0.0000000E+00  0.0000000E+00  0.1250000E+00  0.2500000E-02
      1        -39.922129   1.000000
      2        -39.614750   1.000000
      3        -39.614749   1.000000
      4        -39.561396   1.000000
      5        -39.561394   1.000000
      6        -39.473156   1.000000
      7          2.443747   1.000000
      8          5.017693   1.000000
      9          8.479404   1.000000
     10          9.086746   1.000000
     11          9.086747   1.000000
     12          9.502238   1.000000
     13          9.502239   1.000000
     14         11.119562   1.000000
     15         11.119563   1.000000
     16         11.357133   1.000000
     17         12.852020   1.000000
     18         12.852021   1.000000
     19         19.396886   0.000000
     20         27.554156   0.000000
     21         29.376042   0.000000
     22         30.050399   0.000000
     23         34.313860   0.000000
     24         34.313860   0.000000
 
  0.1000000E+00 -0.1387779E-16  0.1250000E+00  0.1500000E-01
      1        -39.906309   1.000000
      2        -39.666734   1.000000
      3        -39.630097   1.000000
      4        -39.616908   1.000000
      5        -39.572449   1.000000
      6        -39.474264   1.000000
      7          2.839179   1.000000
      8          5.389330   1.000000
      9          8.442448   1.000000
     10          9.013221   1.000000
     11          9.241412   1.000000
     12          9.394985   1.000000
     13          9.800984   1.000000
     14         10.204136   1.000000
     15         10.935705   1.000000
     16         10.958207   1.000000
     17         12.917971   1.000000
     18         14.194688   0.000000
     19         19.459257   0.000000
     20         28.190798   0.000000
     21         29.909441   0.000000
     22         30.614081   0.000000
     23         32.552250   0.000000
     24         33.468562   0.000000
 
  0.2000000E+00 -0.2775558E-16  0.1250000E+00  0.1500000E-01
      1        -39.871080   1.000000
      2        -39.794487   1.000000
      3        -39.755797   1.000000
      4        -39.668634   1.000000
      5        -39.600744   1.000000
      6        -39.483327   1.000000
      7          3.893829   1.000000
      8          6.197612   1.000000
      9          8.209205   1.000000
     10          8.422983   1.000000
     11          8.780047   1.000000
     12          9.702106   1.000000
     13         10.139382   1.000000
     14         10.551632   1.000000
     15         10.610457   1.000000
     16         10.760572   1.000000
     17         13.017735   0.999527
     18         15.927914   0.000000
     19         19.786892   0.000000
     20         28.023859   0.000000
     21         29.832746   0.000000
     22         31.020405   0.000000
     23         31.261913   0.000000
     24         32.213932   0.000000
 
  0.3000000E+00 -0.5551115E-16  0.1250000E+00  0.1500000E-01
      1        -39.980933   1.000000
      2        -39.924382   1.000000
      3        -39.787207   1.000000
      4        -39.715316   1.000000
      5        -39.636370   1.000000
      6        -39.502901   1.000000
      7          5.080800   1.000000
      8          6.297575   1.000000
      9          7.471156   1.000000
     10          8.283733   1.000000
     11          8.943611   1.000000
     12          9.892229   1.000000
     13          9.957510   1.000000
     14         11.249399   1.000000
     15         11.677730   1.000000
     16         11.880064   1.000000
     17         13.073929   0.956986
     18         17.157791   0.000000
     19         20.691921   0.000000
     20         24.541949   0.000000
     21         28.432834   0.000000
     22         28.802330   0.000000
     23         30.569401   0.000000
     24         32.366814   0.000000
 
  0.4000000E+00 -0.8326673E-16  0.1250000E+00  0.1500000E-01
      1        -40.113876   1.000000
      2        -40.054554   1.000000
      3        -39.752135   1.000000
      4        -39.725759   1.000000
      5        -39.665414   1.000000
      6        -39.531114   1.000000
      7          5.563309   1.000000
      8          5.901125   1.000000
      9          6.921344   1.000000
     10          8.341551   1.000000
     11          9.604715   1.000000
     12          9.658593   1.000000
     13         10.442651   1.000000
     14         12.853109   1.000000
     15         12.963306   0.999999
     16         13.242384   0.001152
     17         13.288216   0.000007
     18         18.144268   0.000000
     19         20.516699   0.000000
     20         22.415962   0.000000
     21         26.278810   0.000000
     22         26.724943   0.000000
     23         27.606911   0.000000
     24         30.781509   0.000000
 
  0.5000000E+00 -0.5551115E-16  0.1250000E+00  0.7500000E-02
      1        -40.164281   1.000000
      2        -40.104436   1.000000
      3        -39.766319   1.000000
      4        -39.694617   1.000000
      5        -39.676371   1.000000
      6        -39.549252   1.000000
      7          5.615933   1.000000
      8          5.683784   1.000000
      9          6.745717   1.000000
     10          8.407778   1.000000
     11          9.548477   1.000000
     12          9.778966   1.000000
     13         10.940698   1.000000
     14         12.955531   1.000000
     15         13.523935   0.000000
     16         13.735288   0.000000
     17         15.320896   0.000000
     18         17.103255   0.000000
     19         20.841061   0.000000
     20         21.699769   0.000000
     21         24.633922   0.000000
     22         25.850248   0.000000
     23         26.814088   0.000000
     24         30.239415   0.000000
 
  0.1000000E+00  0.1000000E+00  0.1250000E+00  0.1500000E-01
      1        -39.878838   1.000000
      2        -39.749145   1.000000
      3        -39.722256   1.000000
      4        -39.650381   1.000000
      5        -39.599142   1.000000
      6        -39.479804   1.000000
      7          3.575946   1.000000
      8          6.039090   1.000000
      9          8.157225   1.000000
     10          8.674484   1.000000
     11          9.101435   1.000000
     12          9.355292   1.000000
     13         10.024331   1.000000
     14         10.276665   1.000000
     15         10.628357   1.000000
     16         10.949958   1.000000
     17         12.930653   1.000000
     18         15.526342   0.000000
     19         19.661150   0.000000
     20         28.893714   0.000000
     21         30.173920   0.000000
     22         30.428393   0.000000
     23         31.031804   0.000000
     24         32.827785   0.000000
 
  0.2000000E+00  0.1000000E+00  0.1250000E+00  0.3000000E-01
      1        -39.908186   1.000000
      2        -39.866349   1.000000
      3        -39.804778   1.000000
      4        -39.704257   1.000000
      5        -39.642021   1.000000
      6        -39.494510   1.000000
      7          4.796113   1.000000
      8          6.715020   1.000000
      9          7.760697   1.000000
     10          8.000471   1.000000
     11          8.664880   1.000000
     12          9.416737   1.000000
     13         10.247057   1.000000
     14         10.421272   1.000000
     15         11.470298   1.000000
     16         11.763489   1.000000
     17         12.934449   1.000000
     18         16.872622   0.000000
     19         20.383230   0.000000
     20         26.358606   0.000000
     21         28.153749   0.000000
     22         29.560501   0.000000
     23         31.254251   0.000000
     24         33.362870   0.000000
 
  0.3000000E+00  0.1000000E+00  0.1250000E+00  0.3000000E-01
      1        -40.047050   1.000000
      2        -39.997800   1.000000
      3        -39.763377   1.000000
      4        -39.743689   1.000000
      5        -39.682716   1.000000
      6        -39.519853   1.000000
      7          5.739073   1.000000
      8          6.405427   1.000000
      9          7.153554   1.000000
     10          8.171374   1.000000
     11          9.173964   1.000000
     12          9.601163   1.000000
     13          9.875696   1.000000
     14         11.390293   1.000000
     15         12.676087   1.000000
     16         12.747671   1.000000
     17         13.566254   0.000000
     18         18.024039   0.000000
     19         21.304642   0.000000
     20         23.003305   0.000000
     21         25.913122   0.000000
     22         28.004952   0.000000
     23         29.248381   0.000000
     24         31.275632   0.000000
 
  0.4000000E+00  0.1000000E+00  0.1250000E+00  0.3000000E-01
      1        -40.136127   1.000000
      2        -40.077645   1.000000
      3        -39.794676   1.000000
      4        -39.709323   1.000000
      5        -39.692903   1.000000
      6        -39.548355   1.000000
      7          5.873528   1.000000
      8          6.054026   1.000000
      9          6.916279   1.000000
     10          8.343032   1.000000
     11          9.244194   1.000000
     12          9.920935   1.000000
     13         10.358664   1.000000
     14         12.702255   1.000000
     15         12.838285   1.000000
     16         13.341253   0.000000
     17         15.324374   0.000000
     18         18.315687   0.000000
     19         20.352734   0.000000
     20         22.697892   0.000000
     21         23.997877   0.000000
     22         26.296951   0.000000
     23         27.429855   0.000000
     24         30.029593   0.000000
 
  0.2000000E+00  0.2000000E+00  0.1250000E+00  0.1500000E-01
      1        -39.984400   1.000000
      2        -39.983328   1.000000
      3        -39.769630   1.000000
      4        -39.756588   1.000000
      5        -39.711394   1.000000
      6        -39.515862   1.000000
      7          6.021648   1.000000
      8          7.115453   1.000000
      9          7.418868   1.000000
     10          7.531478   1.000000
     11          8.938865   1.000000
     12          8.979380   1.000000
     13          9.941660   1.000000
     14         10.678273   1.000000
     15         12.517427   1.000000
     16         12.731834   1.000000
     17         13.671234   0.000000
     18         18.061071   0.000000
     19         21.546992   0.000000
     20         24.156398   0.000000
     21         24.701683   0.000000
     22         28.894029   0.000000
     23         30.067353   0.000000
     24         31.852335   0.000000
 
  0.3000000E+00  0.2000000E+00  0.1250000E+00  0.3000000E-01
      1        -40.070046   1.000000
      2        -40.031160   1.000000
      3        -39.844120   1.000000
      4        -39.778509   1.000000
      5        -39.692181   1.000000
      6        -39.546936   1.000000
      7          6.535242   1.000000
      8          6.948453   1.000000
      9          7.152351   1.000000
     10          8.018508   1.000000
     11          8.961227   1.000000
     12          9.398526   1.000000
     13          9.751970   1.000000
     14         11.505573   1.000000
     15         12.366911   1.000000
     16         13.250627   0.000517
     17         15.532145   0.000000
     18         19.989545   0.000000
     19         20.109406   0.000000
     20         22.489116   0.000000
     21         23.988477   0.000000
     22         27.338184   0.000000
     23         28.383504   0.000000
     24         29.945061   0.000000
 
  0.4000000E+00  0.2000000E+00  0.1250000E+00  0.1500000E-01
      1        -40.101610   1.000000
      2        -40.043586   1.000000
      3        -39.879586   1.000000
      4        -39.801514   1.000000
      5        -39.659211   1.000000
      6        -39.569673   1.000000
      7          6.435844   1.000000
      8          6.814190   1.000000
      9          7.255426   1.000000
     10          8.269326   1.000000
     11          8.786267   1.000000
     12          9.620331   1.000000
     13         10.093484   1.000000
     14         12.297088   1.000000
     15         12.364491   1.000000
     16         12.991812   0.999973
     17         17.191468   0.000000
     18         17.807543   0.000000
     19         21.191789   0.000000
     20         22.562672   0.000000
     21         23.545486   0.000000
     22         26.714680   0.000000
     23         28.043977   0.000000
     24         28.483201   0.000000
 
  0.3000000E+00  0.3000000E+00  0.1250000E+00  0.1500000E-01
      1        -40.047330   1.000000
      2        -40.006605   1.000000
      3        -39.936601   1.000000
      4        -39.877268   1.000000
      5        -39.639960   1.000000
      6        -39.584311   1.000000
      7          6.821552   1.000000
      8          7.330029   1.000000
      9          7.663614   1.000000
     10          7.990504   1.000000
     11          8.891025   1.000000
     12          8.933336   1.000000
     13         10.022777   1.000000
     14         11.969190   1.000000
     15         12.096656   1.000000
     16         12.821414   1.000000
     17         17.293352   0.000000
     18         18.583720   0.000000
     19         20.148397   0.000000
     20         22.953714   0.000000
     21         25.722980   0.000000
     22         25.734069   0.000000
     23         27.727603   0.000000
     24         28.997203   0.000000
 
  0.0000000E+00  0.0000000E+00  0.2500000E+00  0.2500000E-02
      1        -39.869981   1.000000
      2        -39.608438   1.000000
      3        -39.608436   1.000000
      4        -39.567733   1.000000
      5        -39.567732   1.000000
      6        -39.527135   1.000000
      7          2.868463   1.000000
      8          4.944740   1.000000
      9          8.387112   1.000000
     10          9.050485   1.000000
     11          9.050486   1.000000
     12          9.383159   1.000000
     13          9.383160   1.000000
     14         10.144761   1.000000
     15         11.423086   1.000000
     16         11.423087   1.000000
     17         12.745659   1.000000
     18         12.745659   1.000000
     19         21.365069   0.000000
     20         27.092008   0.000000
     21         29.371510   0.000000
     22         29.938910   0.000000
     23         33.642923   0.000000
     24         33.642924   0.000000
 
  0.1000000E+00 -0.1387779E-16  0.2500000E+00  0.1500000E-01
      1        -39.859863   1.000000
      2        -39.657965   1.000000
      3        -39.629147   1.000000
      4        -39.623181   1.000000
      5        -39.579216   1.000000
      6        -39.519999   1.000000
      7          3.255765   1.000000
      8          5.332228   1.000000
      9          8.421139   1.000000
     10          8.833043   1.000000
     11          8.917093   1.000000
     12          9.342429   1.000000
     13          9.674743   1.000000
     14          9.776936   1.000000
     15         11.278120   1.000000
     16         11.278447   1.000000
     17         12.775113   1.000000
     18         13.447428   0.000000
     19         21.496632   0.000000
     20         27.717554   0.000000
     21         29.921994   0.000000
     22         30.421001   0.000000
     23         32.260883   0.000000
     24         33.252907   0.000000
 
  0.2000000E+00 -0.2775558E-16  0.2500000E+00  0.1500000E-01
      1        -39.859789   1.000000
      2        -39.775134   1.000000
      3        -39.751624   1.000000
      4        -39.660617   1.000000
      5        -39.608713   1.000000
      6        -39.519376   1.000000
      7          4.256587   1.000000
      8          6.201031   1.000000
      9          7.988342   1.000000
     10          8.339789   1.000000
     11          8.513313   1.000000
     12          9.476066   1.000000
     13         10.043963   1.000000
     14         10.471730   1.000000
     15         11.113044   1.000000
     16         11.133004   1.000000
     17         12.806295   1.000000
     18         14.597526   0.000000
     19         21.879277   0.000000
     20         28.241324   0.000000
     21         29.512414   0.000000
     22         30.414529   0.000000
     23         31.737240   0.000000
     24         32.522999   0.000000
 
  0.3000000E+00 -0.5551115E-16  0.2500000E+00  0.1500000E-01
      1        -39.988265   1.000000
      2        -39.940209   1.000000
      3        -39.739714   1.000000
      4        -39.706213   1.000000
      5        -39.645657   1.000000
      6        -39.527907   1.000000
      7          5.229813   1.000000