 vasp.6.3.2 27Jun22 (build Aug 12 2022 00:53:59) complex                        
  
 executed on               tv2STD date 2024.12.03  02:19:14
 running   24 mpi-ranks, with    1 threads/rank
 distrk:  each k-point on   24 cores,    1 groups
 distr:  one band on NCORE=   1 cores,   24 groups


--------------------------------------------------------------------------------------------------------


 INCAR:
   SYSTEM = Pt-hcc
   NWRITE = 2    write-flag
   ISTART = 0    job   : 0-new, 1-cont, 2-samecut
   ICHARG = 2    charge: 0-wave, 1-file, 2-atom, >10-const
   INIWAV = 1    electr: 0-lowe 1-rand  2-diag
   ENCUT = 450.0     energy cutoff in eV
   PREC = Accurate      normal | accurate
   ADDGRID = .FALSE.  (use fine grid)
   NELM = 100     number of ELM steps
   EDIFF = 1E-06    energy stopping-criterion for ELM
   LREAL = .FALSE.      real-space projection (.FALSE., .TRUE., On, Auto)
   ALGO = Normal     Normal, Fast, Very_Fast
   LWAVE = .TRUE.
   LCHARG = .TRUE.
   NSW = 100       max number of geometry steps
   IBRION = 2     ionic relax: 0-MD, 1-quasi-Newton, 2-CG, 3-Damped MD
   EDIFFG = -0.02  force (eV/A) stopping-criterion for geometry steps
   ISIF = 2     (1:force\=y stress\=trace only ions\=y shape\=n volume\=n)
   ISYM = 1     (1-use symmetry, 0-no symmetry)
   ISMEAR = 0     (-1-Fermi, 1-Methfessel/Paxton)
   SIGMA = 0.05   broadening in eV
   LORBIT = 11

 POTCAR:    PAW_PBE Pt_pv 12Dec2005               
 POTCAR:    PAW_PBE Pt_pv 12Dec2005               
   SHA256 =  e5abf7e8cd8db70d0153315afc5ad66b6e3eeee29cc2d5b91b16730957c1d208 Pt_pv/POTCAR          
   COPYR  = (c) Copyright 12Dec2005 Georg Kresse                                                    
   COPYR  = This file is part of the software VASP. Any use, copying, and all other rights are regul
   COPYR  = If you do not have a valid VASP license, you may not use, copy or distribute this file. 
   VRHFIN =Pt: 5ps1d9                                                                               
   LEXCH  = PE                                                                                      
   EATOM  =  2428.2504 eV,  178.4714 Ry                                                             
                                                                                                    
   TITEL  = PAW_PBE Pt_pv 12Dec2005                                                                 
   LULTRA =        F    use ultrasoft PP ?                                                          
   IUNSCR =        1    unscreen: 0-lin 1-nonlin 2-no                                               
   RPACOR =    2.000    partial core radius                                                         
   POMASS =  195.080; ZVAL   =   16.000    mass and valenz                                          
   RCORE  =    2.200    outmost cutoff radius                                                       
   RWIGS  =    2.200; RWIGS  =    1.164    wigner-seitz radius (au A)                               
   ENMAX  =  294.607; ENMIN  =  220.955 eV                                                          
   ICORE  =        3    local potential                                                             
   LCOR   =        T    correct aug charges                                                         
   LPAW   =        T    paw PP                                                                      
   EAUG   =  527.014                                                                                
   DEXC   =    0.000                                                                                
   RMAX   =    2.247    core radius for proj-oper                                                   
   RAUG   =    1.300    factor for augmentation sphere                                              
   RDEP   =    2.279    radius for radial grids                                                     
   RDEPT  =    1.878    core radius for aug-charge                                                  
                                                                                                    
   Atomic configuration                                                                             
   16 entries                                                                                       
     n  l   j            E        occ.                                                              
     1  0  0.50    -78401.1885   2.0000                                                             
     2  0  0.50    -13770.7750   2.0000                                                             
     2  1  1.50    -11931.0468   6.0000                                                             
     3  0  0.50     -3234.7234   2.0000                                                             
     3  1  1.50     -2699.2216   6.0000                                                             
     3  2  2.50     -2119.5714  10.0000                                                             
     4  0  0.50      -695.1528   2.0000                                                             
     4  1  1.50      -519.6034   6.0000                                                             
     4  2  2.50      -306.6786  10.0000                                                             
     4  3  3.50       -70.1041  14.0000                                                             
     5  0  0.50      -101.7747   2.0000                                                             
     5  1  1.50       -55.9873   6.0000                                                             
     6  1  1.50        -6.8029   0.0000                                                             
     5  2  2.50        -6.1423   9.0000                                                             
     6  0  0.50        -5.6573   1.0000                                                             
     5  3  2.50        -1.3606   0.0000                                                             
   Description                                                                                      
     l       E           TYP  RCUT    TYP  RCUT                                                     
     1    -55.9873477     23  2.000                                                                 
     1     27.2116520     23  2.000                                                                 
     2     -6.1423404     23  2.200                                                                 
     2     -4.6754623     23  2.200                                                                 
     0     -5.6573207     23  2.200                                                                 
     0     47.6203910     23  2.200                                                                 
     3      6.8029130     23  2.200                                                                 
  local pseudopotential read in
  partial core-charges read in
  partial kinetic energy density read in
  atomic valenz-charges read in
  non local Contribution for L=           1  read in
    real space projection operators read in
  non local Contribution for L=           1  read in
    real space projection operators read in
  non local Contribution for L=           2  read in
    real space projection operators read in
  non local Contribution for L=           2  read in
    real space projection operators read in
  non local Contribution for L=           0  read in
    real space projection operators read in
  non local Contribution for L=           0  read in
    real space projection operators read in
    PAW grid and wavefunctions read in
 
   number of l-projection  operators is LMAX  =           6
   number of lm-projection operators is LMMAX =          18
 
  PAW_PBE Pt_pv 12Dec2005               :
 energy of atom  1       EATOM=-2428.2504
 kinetic energy error for atom=    0.0356 (will be added to EATOM!!)
 
 
 POSCAR: Pt
  positions in cartesian coordinates
  No initial velocities read in
 exchange correlation table for  LEXCH =        8
   RHO(1)=    0.500       N(1)  =     2000
   RHO(2)=  100.500       N(2)  =     4000
 


--------------------------------------------------------------------------------------------------------


 ion  position               nearest neighbor table
   1  0.000  0.000  0.000-   2 2.78   2 2.78   2 2.78   2 2.78   2 2.78   2 2.78
   2  0.333  0.667  0.500-   1 2.78   1 2.78   1 2.78   1 2.78   1 2.78   1 2.78
 
  LATTYP: Found a hexagonal cell.
 ALAT       =     2.6703829583
 C/A-ratio  =     1.7324766951
  
  Lattice vectors:
  
 A1 = (   2.6703829583,   0.0000000000,   0.0000000000)
 A2 = (  -1.3351914791,   2.3126194797,   0.0000000000)
 A3 = (   0.0000000000,   0.0000000000,   4.6263762423)


Analysis of symmetry for initial positions (statically):
=====================================================================
 Subroutine PRICEL returns:
 Original cell was already a primitive cell.
 

 Routine SETGRP: Setting up the symmetry group for a 
 hexagonal supercell.


 Subroutine GETGRP returns: Found 24 space group operations
 (whereof 12 operations were pure point group operations)
 out of a pool of 24 trial point group operations.


The static configuration has the point symmetry D_3h.
 The point group associated with its full space group is D_6h.


Analysis of symmetry for dynamics (positions and initial velocities):
=====================================================================
 Subroutine PRICEL returns:
 Original cell was already a primitive cell.
 

 Routine SETGRP: Setting up the symmetry group for a 
 hexagonal supercell.


 Subroutine GETGRP returns: Found 24 space group operations
 (whereof 12 operations were pure point group operations)
 out of a pool of 24 trial point group operations.


The dynamic configuration has the point symmetry D_3h.
 The point group associated with its full space group is D_6h.


 Subroutine INISYM returns: Found 24 space group operations
 (whereof 12 operations are pure point group operations),
 and found     1 'primitive' translations


----------------------------------------------------------------------------------------

                                     Primitive cell                                     

  volume of cell :      28.5706

  direct lattice vectors                    reciprocal lattice vectors
     2.670382958  0.000000000  0.000000000     0.374478124  0.216205046  0.000000000
    -1.335191479  2.312619480  0.000000000     0.000000000  0.432410091  0.000000000
     0.000000000  0.000000000  4.626376242     0.000000000  0.000000000  0.216151897

  length of vectors
     2.670382958  2.670382958  4.626376242     0.432410091  0.432410091  0.216151897

  position of ions in fractional coordinates (direct lattice)
     0.000000000  0.000000000  0.000000000
     0.333333333  0.666666667  0.500000000

  ion indices of the primitive-cell ions
   primitive index   ion index
                 1           1
                 2           2

----------------------------------------------------------------------------------------

 
 
 KPOINTS: Automatic mesh                          

Automatic generation of k-mesh.
 Grid dimensions read from file:
 generate k-points for:   10   10    8

 Generating k-lattice:

  Cartesian coordinates                     Fractional coordinates (reciprocal lattice)
     0.037447812  0.021620505  0.000000000     0.100000000 -0.000000000  0.000000000
     0.000000000  0.043241009  0.000000000     0.000000000  0.100000000  0.000000000
     0.000000000  0.000000000  0.027018987     0.000000000  0.000000000  0.125000000

  Length of vectors
     0.043241009  0.043241009  0.027018987

  Shift w.r.t. Gamma in fractional coordinates (k-lattice)
     0.000000000  0.000000000  0.000000000

 
 Subroutine IBZKPT returns following result:
 ===========================================
 
 Found     70 irreducible k-points:
 
 Following reciprocal coordinates:
            Coordinates               Weight
  0.000000  0.000000  0.000000      1.000000
  0.100000 -0.000000  0.000000      6.000000
  0.200000 -0.000000  0.000000      6.000000
  0.300000 -0.000000  0.000000      6.000000
  0.400000 -0.000000  0.000000      6.000000
  0.500000 -0.000000  0.000000      3.000000
  0.100000  0.100000  0.000000      6.000000
  0.200000  0.100000  0.000000     12.000000
  0.300000  0.100000  0.000000     12.000000
  0.400000  0.100000  0.000000     12.000000
  0.200000  0.200000  0.000000      6.000000
  0.300000  0.200000  0.000000     12.000000
  0.400000  0.200000  0.000000      6.000000
  0.300000  0.300000  0.000000      6.000000
  0.000000  0.000000  0.125000      2.000000
  0.100000 -0.000000  0.125000     12.000000
  0.200000 -0.000000  0.125000     12.000000
  0.300000 -0.000000  0.125000     12.000000
  0.400000 -0.000000  0.125000     12.000000
  0.500000 -0.000000  0.125000      6.000000
  0.100000  0.100000  0.125000     12.000000
  0.200000  0.100000  0.125000     24.000000
  0.300000  0.100000  0.125000     24.000000
  0.400000  0.100000  0.125000     24.000000
  0.200000  0.200000  0.125000     12.000000
  0.300000  0.200000  0.125000     24.000000
  0.400000  0.200000  0.125000     12.000000
  0.300000  0.300000  0.125000     12.000000
  0.000000  0.000000  0.250000      2.000000
  0.100000 -0.000000  0.250000     12.000000
  0.200000 -0.000000  0.250000     12.000000
  0.300000 -0.000000  0.250000     12.000000
  0.400000 -0.000000  0.250000     12.000000
  0.500000 -0.000000  0.250000      6.000000
  0.100000  0.100000  0.250000     12.000000
  0.200000  0.100000  0.250000     24.000000
  0.300000  0.100000  0.250000     24.000000
  0.400000  0.100000  0.250000     24.000000
  0.200000  0.200000  0.250000     12.000000
  0.300000  0.200000  0.250000     24.000000
  0.400000  0.200000  0.250000     12.000000
  0.300000  0.300000  0.250000     12.000000
  0.000000  0.000000  0.375000      2.000000
  0.100000 -0.000000  0.375000     12.000000
  0.200000 -0.000000  0.375000     12.000000
  0.300000 -0.000000  0.375000     12.000000
  0.400000 -0.000000  0.375000     12.000000
  0.500000 -0.000000  0.375000      6.000000
  0.100000  0.100000  0.375000     12.000000
  0.200000  0.100000  0.375000     24.000000
  0.300000  0.100000  0.375000     24.000000
  0.400000  0.100000  0.375000     24.000000
  0.200000  0.200000  0.375000     12.000000
  0.300000  0.200000  0.375000     24.000000
  0.400000  0.200000  0.375000     12.000000
  0.300000  0.300000  0.375000     12.000000
  0.000000  0.000000  0.500000      1.000000
  0.100000 -0.000000  0.500000      6.000000
  0.200000 -0.000000  0.500000      6.000000
  0.300000 -0.000000  0.500000      6.000000
  0.400000 -0.000000  0.500000      6.000000
  0.500000 -0.000000  0.500000      3.000000
  0.100000  0.100000  0.500000      6.000000
  0.200000  0.100000  0.500000     12.000000
  0.300000  0.100000  0.500000     12.000000
  0.400000  0.100000  0.500000     12.000000
  0.200000  0.200000  0.500000      6.000000
  0.300000  0.200000  0.500000     12.000000
  0.400000  0.200000  0.500000      6.000000
  0.300000  0.300000  0.500000      6.000000
 
 Following cartesian coordinates:
            Coordinates               Weight
  0.000000  0.000000  0.000000      1.000000
  0.037448  0.021621  0.000000      6.000000
  0.074896  0.043241  0.000000      6.000000
  0.112343  0.064862  0.000000      6.000000
  0.149791  0.086482  0.000000      6.000000
  0.187239  0.108103  0.000000      3.000000
  0.037448  0.064862  0.000000      6.000000
  0.074896  0.086482  0.000000     12.000000
  0.112343  0.108103  0.000000     12.000000
  0.149791  0.129723  0.000000     12.000000
  0.074896  0.129723  0.000000      6.000000
  0.112343  0.151344  0.000000     12.000000
  0.149791  0.172964  0.000000      6.000000
  0.112343  0.194585  0.000000      6.000000
  0.000000  0.000000  0.027019      2.000000
  0.037448  0.021621  0.027019     12.000000
  0.074896  0.043241  0.027019     12.000000
  0.112343  0.064862  0.027019     12.000000
  0.149791  0.086482  0.027019     12.000000
  0.187239  0.108103  0.027019      6.000000
  0.037448  0.064862  0.027019     12.000000
  0.074896  0.086482  0.027019     24.000000
  0.112343  0.108103  0.027019     24.000000
  0.149791  0.129723  0.027019     24.000000
  0.074896  0.129723  0.027019     12.000000
  0.112343  0.151344  0.027019     24.000000
  0.149791  0.172964  0.027019     12.000000
  0.112343  0.194585  0.027019     12.000000
  0.000000  0.000000  0.054038      2.000000
  0.037448  0.021621  0.054038     12.000000
  0.074896  0.043241  0.054038     12.000000
  0.112343  0.064862  0.054038     12.000000
  0.149791  0.086482  0.054038     12.000000
  0.187239  0.108103  0.054038      6.000000
  0.037448  0.064862  0.054038     12.000000
  0.074896  0.086482  0.054038     24.000000
  0.112343  0.108103  0.054038     24.000000
  0.149791  0.129723  0.054038     24.000000
  0.074896  0.129723  0.054038     12.000000
  0.112343  0.151344  0.054038     24.000000
  0.149791  0.172964  0.054038     12.000000
  0.112343  0.194585  0.054038     12.000000
  0.000000  0.000000  0.081057      2.000000
  0.037448  0.021621  0.081057     12.000000
  0.074896  0.043241  0.081057     12.000000
  0.112343  0.064862  0.081057     12.000000
  0.149791  0.086482  0.081057     12.000000
  0.187239  0.108103  0.081057      6.000000
  0.037448  0.064862  0.081057     12.000000
  0.074896  0.086482  0.081057     24.000000
  0.112343  0.108103  0.081057     24.000000
  0.149791  0.129723  0.081057     24.000000
  0.074896  0.129723  0.081057     12.000000
  0.112343  0.151344  0.081057     24.000000
  0.149791  0.172964  0.081057     12.000000
  0.112343  0.194585  0.081057     12.000000
  0.000000  0.000000  0.108076      1.000000
  0.037448  0.021621  0.108076      6.000000
  0.074896  0.043241  0.108076      6.000000
  0.112343  0.064862  0.108076      6.000000
  0.149791  0.086482  0.108076      6.000000
  0.187239  0.108103  0.108076      3.000000
  0.037448  0.064862  0.108076      6.000000
  0.074896  0.086482  0.108076     12.000000
  0.112343  0.108103  0.108076     12.000000
  0.149791  0.129723  0.108076     12.000000
  0.074896  0.129723  0.108076      6.000000
  0.112343  0.151344  0.108076     12.000000
  0.149791  0.172964  0.108076      6.000000
  0.112343  0.194585  0.108076      6.000000
 


--------------------------------------------------------------------------------------------------------




 Dimension of arrays:
   k-points           NKPTS =     70   k-points in BZ     NKDIM =     70   number of bands    NBANDS=     24
   number of dos      NEDOS =    301   number of ions     NIONS =      2
   non local maximal  LDIM  =      6   non local SUM 2l+1 LMDIM =     18
   total plane-waves  NPLWV =  10368
   max r-space proj   IRMAX =      1   max aug-charges    IRDMAX=  12554
   dimension x,y,z NGX =    18 NGY =   18 NGZ =   32
   dimension x,y,z NGXF=    36 NGYF=   36 NGZF=   64
   support grid    NGXF=    36 NGYF=   36 NGZF=   64
   ions per type =               2
   NGX,Y,Z   is equivalent  to a cutoff of  11.21, 11.21, 11.50 a.u.
   NGXF,Y,Z  is equivalent  to a cutoff of  22.41, 22.41, 23.00 a.u.

 SYSTEM =  Pt-hcc                                  
 POSCAR =  Pt                                      

 Startparameter for this run:
   NWRITE =      2    write-flag & timer
   PREC   = accura    normal or accurate (medium, high low for compatibility)
   ISTART =      0    job   : 0-new  1-cont  2-samecut
   ICHARG =      2    charge: 1-file 2-atom 10-const
   ISPIN  =      1    spin polarized calculation?
   LNONCOLLINEAR =      F non collinear calculations
   LSORBIT =      F    spin-orbit coupling
   INIWAV =      1    electr: 0-lowe 1-rand  2-diag
   LASPH  =      F    aspherical Exc in radial PAW
 Electronic Relaxation 1
   ENCUT  =  450.0 eV  33.07 Ry    5.75 a.u.   4.62  4.62  8.00*2*pi/ulx,y,z
   ENINI  =  450.0     initial cutoff
   ENAUG  =  527.0 eV  augmentation charge cutoff
   NELM   =    100;   NELMIN=  2; NELMDL= -5     # of ELM steps 
   EDIFF  = 0.1E-05   stopping-criterion for ELM
   LREAL  =      F    real-space projection
   NLSPLINE    = F    spline interpolate recip. space projectors
   LCOMPAT=      F    compatible to vasp.4.4
   GGA_COMPAT  = T    GGA compatible to vasp.4.4-vasp.4.6
   LMAXPAW     = -100 max onsite density
   LMAXMIX     =    2 max onsite mixed and CHGCAR
   VOSKOWN=      0    Vosko Wilk Nusair interpolation
   ROPT   =    0.00000
 Ionic relaxation
   EDIFFG = -.2E-01   stopping-criterion for IOM
   NSW    =    100    number of steps for IOM
   NBLOCK =      1;   KBLOCK =    100    inner block; outer block 
   IBRION =      2    ionic relax: 0-MD 1-quasi-New 2-CG
   NFREE  =      1    steps in history (QN), initial steepest desc. (CG)
   ISIF   =      2    stress and relaxation
   IWAVPR =     11    prediction:  0-non 1-charg 2-wave 3-comb
   ISYM   =      1    0-nonsym 1-usesym 2-fastsym
   LCORR  =      T    Harris-Foulkes like correction to forces

   POTIM  = 0.5000    time-step for ionic-motion
   TEIN   =    0.0    initial temperature
   TEBEG  =    0.0;   TEEND  =   0.0 temperature during run
   SMASS  =  -3.00    Nose mass-parameter (am)
   estimated Nose-frequenzy (Omega)   =  0.10E-29 period in steps = 0.13E+47 mass=  -0.163E-27a.u.
   SCALEE = 1.0000    scale energy and forces
   NPACO  =    256;   APACO  = 10.0  distance and # of slots for P.C.
   PSTRESS=    0.0 pullay stress

  Mass of Ions in am
   POMASS = 195.08
  Ionic Valenz
   ZVAL   =  16.00
  Atomic Wigner-Seitz radii
   RWIGS  =  -1.00
  virtual crystal weights 
   VCA    =   1.00
   NELECT =      32.0000    total number of electrons
   NUPDOWN=      -1.0000    fix difference up-down

 DOS related values:
   EMIN   =  10.00;   EMAX   =-10.00  energy-range for DOS
   EFERMI =   0.00
   ISMEAR =     0;   SIGMA  =   0.05  broadening in eV -4-tet -1-fermi 0-gaus

 Electronic relaxation 2 (details)
   IALGO  =     38    algorithm
   LDIAG  =      T    sub-space diagonalisation (order eigenvalues)
   LSUBROT=      F    optimize rotation matrix (better conditioning)
   TURBO    =      0    0=normal 1=particle mesh
   IRESTART =      0    0=no restart 2=restart with 2 vectors
   NREBOOT  =      0    no. of reboots
   NMIN     =      0    reboot dimension
   EREF     =   0.00    reference energy to select bands
   IMIX   =      4    mixing-type and parameters
     AMIX     =   0.40;   BMIX     =  1.00
     AMIX_MAG =   1.60;   BMIX_MAG =  1.00
     AMIN     =   0.10
     WC   =   100.;   INIMIX=   1;  MIXPRE=   1;  MAXMIX= -45

 Intra band minimization:
   WEIMIN = 0.0010     energy-eigenvalue tresh-hold
   EBREAK =  0.10E-07  absolut break condition
   DEPER  =   0.30     relativ break condition  

   TIME   =   0.40     timestep for ELM

  volume/ion in A,a.u.               =      14.29        96.40
  Fermi-wavevector in a.u.,A,eV,Ry     =   1.700142  3.212803 39.327419  2.890484
  Thomas-Fermi vector in A             =   2.780331
 
 Write flags
   LWAVE        =      T    write WAVECAR
   LDOWNSAMPLE  =      F    k-point downsampling of WAVECAR
   LCHARG       =      T    write CHGCAR
   LVTOT        =      F    write LOCPOT, total local potential
   LVHAR        =      F    write LOCPOT, Hartree potential only
   LELF         =      F    write electronic localiz. function (ELF)
   LORBIT       =     11    0 simple, 1 ext, 2 COOP (PROOUT), +10 PAW based schemes


 Dipole corrections
   LMONO  =      F    monopole corrections only (constant potential shift)
   LDIPOL =      F    correct potential (dipole corrections)
   IDIPOL =      0    1-x, 2-y, 3-z, 4-all directions 
   EPSILON=  1.0000000 bulk dielectric constant

 Exchange correlation treatment:
   GGA     =    --    GGA type
   LEXCH   =     8    internal setting for exchange type
   LIBXC   =     F    Libxc                    
   VOSKOWN =     0    Vosko Wilk Nusair interpolation
   LHFCALC =     F    Hartree Fock is set to
   LHFONE  =     F    Hartree Fock one center treatment
   AEXX    =    0.0000 exact exchange contribution

 Linear response parameters
   LEPSILON=     F    determine dielectric tensor
   LRPA    =     F    only Hartree local field effects (RPA)
   LNABLA  =     F    use nabla operator in PAW spheres
   LVEL    =     F    velocity operator in full k-point grid
   CSHIFT  =0.1000    complex shift for real part using Kramers Kronig
   OMEGAMAX=  -1.0    maximum frequency
   DEG_THRESHOLD= 0.2000000E-02 threshold for treating states as degnerate
   RTIME   =   -0.100 relaxation time in fs
  (WPLASMAI=    0.000 imaginary part of plasma frequency in eV, 0.658/RTIME)
   DFIELD  = 0.0000000 0.0000000 0.0000000 field for delta impulse in time
 
  Optional k-point grid parameters
   LKPOINTS_OPT  =     F    use optional k-point grid
   KPOINTS_OPT_MODE=     1    mode for optional k-point grid
 
 Orbital magnetization related:
   ORBITALMAG=     F  switch on orbital magnetization
   LCHIMAG   =     F  perturbation theory with respect to B field
   DQ        =  0.001000  dq finite difference perturbation B field
   LLRAUG    =     F  two centre corrections for induced B field



--------------------------------------------------------------------------------------------------------


 conjugate gradient relaxation of ions
 charge density and potential will be updated during run
 non-spin polarized calculation
 Variant of blocked Davidson
 Davidson routine will perform the subspace rotation
 perform sub-space diagonalisation
    after iterative eigenvector-optimisation
 modified Broyden-mixing scheme, WC =      100.0
 initial mixing is a Kerker type mixing with AMIX =  0.4000 and BMIX =      1.0000
 Hartree-type preconditioning will be used
 using additional bands            8
 reciprocal scheme for non local part
 use partial core corrections
 calculate Harris-corrections to forces 
   (improved forces if not selfconsistent)
 use gradient corrections 
 use of overlap-Matrix (Vanderbilt PP)
 Gauss-broadening in eV      SIGMA  =   0.05


--------------------------------------------------------------------------------------------------------


  energy-cutoff  :      450.00
  volume of cell :       28.57
      direct lattice vectors                 reciprocal lattice vectors
     2.670382958  0.000000000  0.000000000     0.374478124  0.216205046  0.000000000
    -1.335191479  2.312619480  0.000000000     0.000000000  0.432410091  0.000000000
     0.000000000  0.000000000  4.626376242     0.000000000  0.000000000  0.216151897

  length of vectors
     2.670382958  2.670382958  4.626376242     0.432410091  0.432410091  0.216151897


 
 k-points in units of 2pi/SCALE and weight: Automatic mesh                          
   0.00000000  0.00000000  0.00000000       0.001
   0.03744781  0.02162050  0.00000000       0.007
   0.07489562  0.04324101  0.00000000       0.007
   0.11234344  0.06486151  0.00000000       0.007
   0.14979125  0.08648202  0.00000000       0.007
   0.18723906  0.10810252  0.00000000       0.004
   0.03744781  0.06486151  0.00000000       0.007
   0.07489562  0.08648202  0.00000000       0.015
   0.11234344  0.10810252  0.00000000       0.015
   0.14979125  0.12972303  0.00000000       0.015
   0.07489562  0.12972303  0.00000000       0.007
   0.11234344  0.15134353  0.00000000       0.015
   0.14979125  0.17296404  0.00000000       0.007
   0.11234344  0.19458454  0.00000000       0.007
   0.00000000  0.00000000  0.02701899       0.003
   0.03744781  0.02162050  0.02701899       0.015
   0.07489562  0.04324101  0.02701899       0.015
   0.11234344  0.06486151  0.02701899       0.015
   0.14979125  0.08648202  0.02701899       0.015
   0.18723906  0.10810252  0.02701899       0.007
   0.03744781  0.06486151  0.02701899       0.015
   0.07489562  0.08648202  0.02701899       0.030
   0.11234344  0.10810252  0.02701899       0.030
   0.14979125  0.12972303  0.02701899       0.030
   0.07489562  0.12972303  0.02701899       0.015
   0.11234344  0.15134353  0.02701899       0.030
   0.14979125  0.17296404  0.02701899       0.015
   0.11234344  0.19458454  0.02701899       0.015
   0.00000000  0.00000000  0.05403797       0.003
   0.03744781  0.02162050  0.05403797       0.015
   0.07489562  0.04324101  0.05403797       0.015
   0.11234344  0.06486151  0.05403797       0.015
   0.14979125  0.08648202  0.05403797       0.015
   0.18723906  0.10810252  0.05403797       0.007
   0.03744781  0.06486151  0.05403797       0.015
   0.07489562  0.08648202  0.05403797       0.030
   0.11234344  0.10810252  0.05403797       0.030
   0.14979125  0.12972303  0.05403797       0.030
   0.07489562  0.12972303  0.05403797       0.015
   0.11234344  0.15134353  0.05403797       0.030
   0.14979125  0.17296404  0.05403797       0.015
   0.11234344  0.19458454  0.05403797       0.015
   0.00000000  0.00000000  0.08105696       0.003
   0.03744781  0.02162050  0.08105696       0.015
   0.07489562  0.04324101  0.08105696       0.015
   0.11234344  0.06486151  0.08105696       0.015
   0.14979125  0.08648202  0.08105696       0.015
   0.18723906  0.10810252  0.08105696       0.007
   0.03744781  0.06486151  0.08105696       0.015
   0.07489562  0.08648202  0.08105696       0.030
   0.11234344  0.10810252  0.08105696       0.030
   0.14979125  0.12972303  0.08105696       0.030
   0.07489562  0.12972303  0.08105696       0.015
   0.11234344  0.15134353  0.08105696       0.030
   0.14979125  0.17296404  0.08105696       0.015
   0.11234344  0.19458454  0.08105696       0.015
   0.00000000  0.00000000  0.10807595       0.001
   0.03744781  0.02162050  0.10807595       0.007
   0.07489562  0.04324101  0.10807595       0.007
   0.11234344  0.06486151  0.10807595       0.007
   0.14979125  0.08648202  0.10807595       0.007
   0.18723906  0.10810252  0.10807595       0.004
   0.03744781  0.06486151  0.10807595       0.007
   0.07489562  0.08648202  0.10807595       0.015
   0.11234344  0.10810252  0.10807595       0.015
   0.14979125  0.12972303  0.10807595       0.015
   0.07489562  0.12972303  0.10807595       0.007
   0.11234344  0.15134353  0.10807595       0.015
   0.14979125  0.17296404  0.10807595       0.007
   0.11234344  0.19458454  0.10807595       0.007
 
 k-points in reciprocal lattice and weights: Automatic mesh                          
   0.00000000  0.00000000  0.00000000       0.001
   0.10000000 -0.00000000  0.00000000       0.007
   0.20000000 -0.00000000  0.00000000       0.007
   0.30000000 -0.00000000  0.00000000       0.007
   0.40000000 -0.00000000  0.00000000       0.007
   0.50000000 -0.00000000  0.00000000       0.004
   0.10000000  0.10000000  0.00000000       0.007
   0.20000000  0.10000000  0.00000000       0.015
   0.30000000  0.10000000  0.00000000       0.015
   0.40000000  0.10000000  0.00000000       0.015
   0.20000000  0.20000000  0.00000000       0.007
   0.30000000  0.20000000  0.00000000       0.015
   0.40000000  0.20000000  0.00000000       0.007
   0.30000000  0.30000000  0.00000000       0.007
   0.00000000  0.00000000  0.12500000       0.003
   0.10000000 -0.00000000  0.12500000       0.015
   0.20000000 -0.00000000  0.12500000       0.015
   0.30000000 -0.00000000  0.12500000       0.015
   0.40000000 -0.00000000  0.12500000       0.015
   0.50000000 -0.00000000  0.12500000       0.007
   0.10000000  0.10000000  0.12500000       0.015
   0.20000000  0.10000000  0.12500000       0.030
   0.30000000  0.10000000  0.12500000       0.030
   0.40000000  0.10000000  0.12500000       0.030
   0.20000000  0.20000000  0.12500000       0.015
   0.30000000  0.20000000  0.12500000       0.030
   0.40000000  0.20000000  0.12500000       0.015
   0.30000000  0.30000000  0.12500000       0.015
   0.00000000  0.00000000  0.25000000       0.003
   0.10000000 -0.00000000  0.25000000       0.015
   0.20000000 -0.00000000  0.25000000       0.015
   0.30000000 -0.00000000  0.25000000       0.015
   0.40000000 -0.00000000  0.25000000       0.015
   0.50000000 -0.00000000  0.25000000       0.007
   0.10000000  0.10000000  0.25000000       0.015
   0.20000000  0.10000000  0.25000000       0.030
   0.30000000  0.10000000  0.25000000       0.030
   0.40000000  0.10000000  0.25000000       0.030
   0.20000000  0.20000000  0.25000000       0.015
   0.30000000  0.20000000  0.25000000       0.030
   0.40000000  0.20000000  0.25000000       0.015
   0.30000000  0.30000000  0.25000000       0.015
   0.00000000  0.00000000  0.37500000       0.003
   0.10000000 -0.00000000  0.37500000       0.015
   0.20000000 -0.00000000  0.37500000       0.015
   0.30000000 -0.00000000  0.37500000       0.015
   0.40000000 -0.00000000  0.37500000       0.015
   0.50000000 -0.00000000  0.37500000       0.007
   0.10000000  0.10000000  0.37500000       0.015
   0.20000000  0.10000000  0.37500000       0.030
   0.30000000  0.10000000  0.37500000       0.030
   0.40000000  0.10000000  0.37500000       0.030
   0.20000000  0.20000000  0.37500000       0.015
   0.30000000  0.20000000  0.37500000       0.030
   0.40000000  0.20000000  0.37500000       0.015
   0.30000000  0.30000000  0.37500000       0.015
   0.00000000  0.00000000  0.50000000       0.001
   0.10000000 -0.00000000  0.50000000       0.007
   0.20000000 -0.00000000  0.50000000       0.007
   0.30000000 -0.00000000  0.50000000       0.007
   0.40000000 -0.00000000  0.50000000       0.007
   0.50000000 -0.00000000  0.50000000       0.004
   0.10000000  0.10000000  0.50000000       0.007
   0.20000000  0.10000000  0.50000000       0.015
   0.30000000  0.10000000  0.50000000       0.015
   0.40000000  0.10000000  0.50000000       0.015
   0.20000000  0.20000000  0.50000000       0.007
   0.30000000  0.20000000  0.50000000       0.015
   0.40000000  0.20000000  0.50000000       0.007
   0.30000000  0.30000000  0.50000000       0.007
 
 position of ions in fractional coordinates (direct lattice) 
   0.00000000  0.00000000  0.00000000
   0.33333333  0.66666667  0.50000000
 
 position of ions in cartesian coordinates  (Angst):
   0.00000000  0.00000000  0.00000000
   0.00000000  1.54174632  2.31318812
 


--------------------------------------------------------------------------------------------------------


 k-point   1 :   0.0000 0.0000 0.0000  plane waves:     641
 k-point   2 :   0.1000-0.0000 0.0000  plane waves:     624
 k-point   3 :   0.2000-0.0000 0.0000  plane waves:     624
 k-point   4 :   0.3000-0.0000 0.0000  plane waves:     618
 k-point   5 :   0.4000-0.0000 0.0000  plane waves:     610
 k-point   6 :   0.5000-0.0000 0.0000  plane waves:     620
 k-point   7 :   0.1000 0.1000 0.0000  plane waves:     621
 k-point   8 :   0.2000 0.1000 0.0000  plane waves:     622
 k-point   9 :   0.3000 0.1000 0.0000  plane waves:     618
 k-point  10 :   0.4000 0.1000 0.0000  plane waves:     613
 k-point  11 :   0.2000 0.2000 0.0000  plane waves:     623
 k-point  12 :   0.3000 0.2000 0.0000  plane waves:     612
 k-point  13 :   0.4000 0.2000 0.0000  plane waves:     612
 k-point  14 :   0.3000 0.3000 0.0000  plane waves:     607
 k-point  15 :   0.0000 0.0000 0.1250  plane waves:     622
 k-point  16 :   0.1000-0.0000 0.1250  plane waves:     625
 k-point  17 :   0.2000-0.0000 0.1250  plane waves:     623
 k-point  18 :   0.3000-0.0000 0.1250  plane waves:     620
 k-point  19 :   0.4000-0.0000 0.1250  plane waves:     611
 k-point  20 :   0.5000-0.0000 0.1250  plane waves:     612
 k-point  21 :   0.1000 0.1000 0.1250  plane waves:     623
 k-point  22 :   0.2000 0.1000 0.1250  plane waves:     623
 k-point  23 :   0.3000 0.1000 0.1250  plane waves:     618
 k-point  24 :   0.4000 0.1000 0.1250  plane waves:     618
 k-point  25 :   0.2000 0.2000 0.1250  plane waves:     619
 k-point  26 :   0.3000 0.2000 0.1250  plane waves:     615
 k-point  27 :   0.4000 0.2000 0.1250  plane waves:     615
 k-point  28 :   0.3000 0.3000 0.1250  plane waves:     610
 k-point  29 :   0.0000 0.0000 0.2500  plane waves:     616
 k-point  30 :   0.1000-0.0000 0.2500  plane waves:     626
 k-point  31 :   0.2000-0.0000 0.2500  plane waves:     622
 k-point  32 :   0.3000-0.0000 0.2500  plane waves:     623
 k-point  33 :   0.4000-0.0000 0.2500  plane waves:     622
 k-point  34 :   0.5000-0.0000 0.2500  plane waves:     610
 k-point  35 :   0.1000 0.1000 0.2500  plane waves:     623
 k-point  36 :   0.2000 0.1000 0.2500  plane waves:     625
 k-point  37 :   0.3000 0.1000 0.2500  plane waves:     621
 k-point  38 :   0.4000 0.1000 0.2500  plane waves:     615
 k-point  39 :   0.2000 0.2000 0.2500  plane waves:     618
 k-point  40 :   0.3000 0.2000 0.2500  plane waves:     617
 k-point  41 :   0.4000 0.2000 0.2500  plane waves:     616
 k-point  42 :   0.3000 0.3000 0.2500  plane waves:     610
 k-point  43 :   0.0000 0.0000 0.3750  plane waves:     616
 k-point  44 :   0.1000-0.0000 0.3750  plane waves:     625
 k-point  45 :   0.2000-0.0000 0.3750  plane waves:     629
 k-point  46 :   0.3000-0.0000 0.3750  plane waves:     627
 k-point  47 :   0.4000-0.0000 0.3750  plane waves:     625
 k-point  48 :   0.5000-0.0000 0.3750  plane waves:     626
 k-point  49 :   0.1000 0.1000 0.3750  plane waves:     623
 k-point  50 :   0.2000 0.1000 0.3750  plane waves:     625
 k-point  51 :   0.3000 0.1000 0.3750  plane waves:     620
 k-point  52 :   0.4000 0.1000 0.3750  plane waves:     615
 k-point  53 :   0.2000 0.2000 0.3750  plane waves:     612
 k-point  54 :   0.3000 0.2000 0.3750  plane waves:     615
 k-point  55 :   0.4000 0.2000 0.3750  plane waves:     614
 k-point  56 :   0.3000 0.3000 0.3750  plane waves:     614
 k-point  57 :   0.0000 0.0000 0.5000  plane waves:     604
 k-point  58 :   0.1000-0.0000 0.5000  plane waves:     626
 k-point  59 :   0.2000-0.0000 0.5000  plane waves:     630
 k-point  60 :   0.3000-0.0000 0.5000  plane waves:     624
 k-point  61 :   0.4000-0.0000 0.5000  plane waves:     610
 k-point  62 :   0.5000-0.0000 0.5000  plane waves:     636
 k-point  63 :   0.1000 0.1000 0.5000  plane waves:     628
 k-point  64 :   0.2000 0.1000 0.5000  plane waves:     622
 k-point  65 :   0.3000 0.1000 0.5000  plane waves:     626
 k-point  66 :   0.4000 0.1000 0.5000  plane waves:     622
 k-point  67 :   0.2000 0.2000 0.5000  plane waves:     624
 k-point  68 :   0.3000 0.2000 0.5000  plane waves:     612
 k-point  69 :   0.4000 0.2000 0.5000  plane waves:     604
 k-point  70 :   0.3000 0.3000 0.5000  plane waves:     610

 maximum and minimum number of plane-waves per node :       641      604

 maximum number of plane-waves:       641
 maximum index in each direction: 
   IXMAX=    4   IYMAX=    4   IZMAX=    8
   IXMIN=   -5   IYMIN=   -4   IZMIN=   -8


 serial   3D FFT for wavefunctions
 parallel 3D FFT for charge:
    minimum data exchange during FFTs selected (reduces bandwidth)


 total amount of memory used by VASP MPI-rank0    38202. kBytes
=======================================================================

   base      :      30000. kBytes
   nonl-proj :       6552. kBytes
   fftplans  :        195. kBytes
   grid      :        645. kBytes
   one-center:         31. kBytes
   wavefun   :        779. kBytes
 
     INWAV:  cpu time      0.0000: real time      0.0004
 Broyden mixing: mesh for mixing (old mesh)
   NGX =  9   NGY =  9   NGZ = 17
  (NGX  = 36   NGY  = 36   NGZ  = 64)
  gives a total of   1377 points

 initial charge density was supplied:
 charge density of overlapping atoms calculated
 number of electron      32.0000000 magnetization 
 keeping initial charge density in first step


--------------------------------------------------------------------------------------------------------


 Maximum index for augmentation-charges          818 (set IRDMAX)


--------------------------------------------------------------------------------------------------------


 First call to EWALD:  gamma=   0.580
 Maximum number of real-space cells 3x 3x 2
 Maximum number of reciprocal cells 2x 2x 4

    FEWALD:  cpu time      0.0014: real time      0.0014


--------------------------------------- Iteration      1(   1)  ---------------------------------------


    POTLOK:  cpu time      0.0038: real time      0.0039
    SETDIJ:  cpu time      0.0022: real time      0.0022
     EDDAV:  cpu time      0.2711: real time      0.2730
       DOS:  cpu time      0.0005: real time      0.0005
    --------------------------------------------
      LOOP:  cpu time      0.2776: real time      0.2796

 eigenvalue-minimisations  :  3360
 total energy-change (2. order) : 0.1406049E+03  (-0.2332867E+04)
 number of electron      32.0000000 magnetization 
 augmentation part       32.0000000 magnetization 

 Free energy of the ion-electron system (eV)
  ---------------------------------------------------
  alpha Z        PSCENC =       335.91486942
  Ewald energy   TEWEN  =     -4385.70012428
  -Hartree energ DENC   =      -753.16274648
  -exchange      EXHF   =         0.00000000
  -V(xc)+E(xc)   XCENC  =       128.37902079
  PAW double counting   =      4131.50523274    -4061.67189606
  entropy T*S    EENTRO =        -0.00119426
  eigenvalues    EBANDS =      -111.08796316
  atomic energy  EATOM  =      4856.42966544
  Solvation  Ediel_sol  =         0.00000000
  ---------------------------------------------------
  free energy    TOTEN  =       140.60486417 eV

  energy without entropy =      140.60605843  energy(sigma->0) =      140.60546130


--------------------------------------------------------------------------------------------------------




--------------------------------------- Iteration      1(   2)  ---------------------------------------


     EDDAV:  cpu time      0.2812: real time      0.2834
       DOS:  cpu time      0.0004: real time      0.0004
    --------------------------------------------
      LOOP:  cpu time      0.2815: real time      0.2838

 eigenvalue-minimisations  :  3456
 total energy-change (2. order) :-0.1517805E+03  (-0.1512597E+03)
 number of electron      32.0000000 magnetization 
 augmentation part       32.0000000 magnetization 

 Free energy of the ion-electron system (eV)
  ---------------------------------------------------
  alpha Z        PSCENC =       335.91486942
  Ewald energy   TEWEN  =     -4385.70012428
  -Hartree energ DENC   =      -753.16274648
  -exchange      EXHF   =         0.00000000
  -V(xc)+E(xc)   XCENC  =       128.37902079
  PAW double counting   =      4131.50523274    -4061.67189606
  entropy T*S    EENTRO =        -0.00508048
  eigenvalues    EBANDS =      -262.86455448
  atomic energy  EATOM  =      4856.42966544
  Solvation  Ediel_sol  =         0.00000000
  ---------------------------------------------------
  free energy    TOTEN  =       -11.17561337 eV

  energy without entropy =      -11.17053289  energy(sigma->0) =      -11.17307313


--------------------------------------------------------------------------------------------------------




--------------------------------------- Iteration      1(   3)  ---------------------------------------


     EDDAV:  cpu time      0.4686: real time      0.4714
       DOS:  cpu time      0.0004: real time      0.0004
    --------------------------------------------
      LOOP:  cpu time      0.4690: real time      0.4718

 eigenvalue-minimisations  :  4608
 total energy-change (2. order) :-0.1261856E+01  (-0.1258585E+01)
 number of electron      32.0000000 magnetization 
 augmentation part       32.0000000 magnetization 

 Free energy of the ion-electron system (eV)
  ---------------------------------------------------
  alpha Z        PSCENC =       335.91486942
  Ewald energy   TEWEN  =     -4385.70012428
  -Hartree energ DENC   =      -753.16274648
  -exchange      EXHF   =         0.00000000
  -V(xc)+E(xc)   XCENC  =       128.37902079
  PAW double counting   =      4131.50523274    -4061.67189606
  entropy T*S    EENTRO =        -0.00349272
  eigenvalues    EBANDS =      -264.12799804
  atomic energy  EATOM  =      4856.42966544
  Solvation  Ediel_sol  =         0.00000000
  ---------------------------------------------------
  free energy    TOTEN  =       -12.43746918 eV

  energy without entropy =      -12.43397646  energy(sigma->0) =      -12.43572282


--------------------------------------------------------------------------------------------------------




--------------------------------------- Iteration      1(   4)  ---------------------------------------


     EDDAV:  cpu time      0.4961: real time      0.4990
       DOS:  cpu time      0.0004: real time      0.0004
    --------------------------------------------
      LOOP:  cpu time      0.4965: real time      0.4994

 eigenvalue-minimisations  :  4728
 total energy-change (2. order) :-0.3618643E-02  (-0.3618598E-02)
 number of electron      32.0000000 magnetization 
 augmentation part       32.0000000 magnetization 

 Free energy of the ion-electron system (eV)
  ---------------------------------------------------
  alpha Z        PSCENC =       335.91486942
  Ewald energy   TEWEN  =     -4385.70012428
  -Hartree energ DENC   =      -753.16274648
  -exchange      EXHF   =         0.00000000
  -V(xc)+E(xc)   XCENC  =       128.37902079
  PAW double counting   =      4131.50523274    -4061.67189606
  entropy T*S    EENTRO =        -0.00348758
  eigenvalues    EBANDS =      -264.13162182
  atomic energy  EATOM  =      4856.42966544
  Solvation  Ediel_sol  =         0.00000000
  ---------------------------------------------------
  free energy    TOTEN  =       -12.44108782 eV

  energy without entropy =      -12.43760024  energy(sigma->0) =      -12.43934403


--------------------------------------------------------------------------------------------------------




--------------------------------------- Iteration      1(   5)  ---------------------------------------


     EDDAV:  cpu time      0.5264: real time      0.5296
       DOS:  cpu time      0.0004: real time      0.0004
    CHARGE:  cpu time      0.0156: real time      0.0157
    MIXING:  cpu time      0.0003: real time      0.0003
    --------------------------------------------
      LOOP:  cpu time      0.5426: real time      0.5459

 eigenvalue-minimisations  :  4848
 total energy-change (2. order) :-0.8198040E-06  (-0.8187814E-06)
 number of electron      31.9999980 magnetization 
 augmentation part        7.9750350 magnetization 

 Broyden mixing:
  rms(total) = 0.25155E+01    rms(broyden)= 0.25154E+01
  rms(prec ) = 0.26839E+01
  weight for this iteration     100.00

 Free energy of the ion-electron system (eV)
  ---------------------------------------------------
  alpha Z        PSCENC =       335.91486942
  Ewald energy   TEWEN  =     -4385.70012428
  -Hartree energ DENC   =      -753.16274648
  -exchange      EXHF   =         0.00000000
  -V(xc)+E(xc)   XCENC  =       128.37902079
  PAW double counting   =      4131.50523274    -4061.67189606
  entropy T*S    EENTRO =        -0.00348758
  eigenvalues    EBANDS =      -264.13162264
  atomic energy  EATOM  =      4856.42966544
  Solvation  Ediel_sol  =         0.00000000
  ---------------------------------------------------
  free energy    TOTEN  =       -12.44108864 eV

  energy without entropy =      -12.43760106  energy(sigma->0) =      -12.43934485


--------------------------------------------------------------------------------------------------------




--------------------------------------- Iteration      1(   6)  ---------------------------------------


    POTLOK:  cpu time      0.0031: real time      0.0032
    SETDIJ:  cpu time      0.0020: real time      0.0020
     EDDAV:  cpu time      0.2850: real time      0.2866
       DOS:  cpu time      0.0004: real time      0.0004
    CHARGE:  cpu time      0.0146: real time      0.0146
    MIXING:  cpu time      0.0005: real time      0.0005
    --------------------------------------------
      LOOP:  cpu time      0.3055: real time      0.3073

 eigenvalue-minimisations  :  3480
 total energy-change (2. order) : 0.6196941E+00  (-0.2094498E+00)
 number of electron      31.9999979 magnetization 
 augmentation part        8.1808792 magnetization 

 Broyden mixing:
  rms(total) = 0.91865E+00    rms(broyden)= 0.91864E+00
  rms(prec ) = 0.95109E+00
  weight for this iteration     100.00

 eigenvalues of (default mixing * dielectric matrix)
  average eigenvalue GAMMA=   1.5576
  1.5576

 Free energy of the ion-electron system (eV)
  ---------------------------------------------------
  alpha Z        PSCENC =       335.91486942
  Ewald energy   TEWEN  =     -4385.70012428
  -Hartree energ DENC   =      -724.71088453
  -exchange      EXHF   =         0.00000000
  -V(xc)+E(xc)   XCENC  =       127.14540750
  PAW double counting   =      4574.79917792    -4509.19193012
  entropy T*S    EENTRO =        -0.00375533
  eigenvalues    EBANDS =      -286.50382053
  atomic energy  EATOM  =      4856.42966544
  Solvation  Ediel_sol  =         0.00000000
  ---------------------------------------------------
  free energy    TOTEN  =       -11.82139451 eV

  energy without entropy =      -11.81763918  energy(sigma->0) =      -11.81951684


--------------------------------------------------------------------------------------------------------




--------------------------------------- Iteration      1(   7)  ---------------------------------------


    POTLOK:  cpu time      0.0028: real time      0.0030
    SETDIJ:  cpu time      0.0020: real time      0.0020
     EDDAV:  cpu time      0.4254: real time      0.4280
       DOS:  cpu time      0.0004: real time      0.0004
    CHARGE:  cpu time      0.0147: real time      0.0147
    MIXING:  cpu time      0.0003: real time      0.0003
    --------------------------------------------
      LOOP:  cpu time      0.4455: real time      0.4483

 eigenvalue-minimisations  :  4440
 total energy-change (2. order) : 0.4380427E-01  (-0.2057580E-01)
 number of electron      31.9999979 magnetization 
 augmentation part        8.2402280 magnetization 

 Broyden mixing:
  rms(total) = 0.23108E+00    rms(broyden)= 0.23108E+00
  rms(prec ) = 0.23962E+00
  weight for this iteration     100.00

 eigenvalues of (default mixing * dielectric matrix)
  average eigenvalue GAMMA=   1.9525
  1.2232  2.6818

 Free energy of the ion-electron system (eV)
  ---------------------------------------------------
  alpha Z        PSCENC =       335.91486942
  Ewald energy   TEWEN  =     -4385.70012428
  -Hartree energ DENC   =      -715.40096655
  -exchange      EXHF   =         0.00000000
  -V(xc)+E(xc)   XCENC  =       126.72249212
  PAW double counting   =      4833.66256020    -4769.66841690
  entropy T*S    EENTRO =        -0.00392266
  eigenvalues    EBANDS =      -293.73374704
  atomic energy  EATOM  =      4856.42966544
  Solvation  Ediel_sol  =         0.00000000
  ---------------------------------------------------
  free energy    TOTEN  =       -11.77759024 eV

  energy without entropy =      -11.77366758  energy(sigma->0) =      -11.77562891


--------------------------------------------------------------------------------------------------------




--------------------------------------- Iteration      1(   8)  ---------------------------------------


    POTLOK:  cpu time      0.0029: real time      0.0030
    SETDIJ:  cpu time      0.0019: real time      0.0019
     EDDAV:  cpu time      0.3096: real time      0.3113
       DOS:  cpu time      0.0004: real time      0.0004
    CHARGE:  cpu time      0.0146: real time      0.0147
    MIXING:  cpu time      0.0002: real time      0.0002
    --------------------------------------------
      LOOP:  cpu time      0.3295: real time      0.3315

 eigenvalue-minimisations  :  3624
 total energy-change (2. order) : 0.2959792E-02  (-0.8802104E-03)
 number of electron      31.9999979 magnetization 
 augmentation part        8.2293575 magnetization 

 Broyden mixing:
  rms(total) = 0.38570E-01    rms(broyden)= 0.38566E-01
  rms(prec ) = 0.40059E-01
  weight for this iteration     100.00

 eigenvalues of (default mixing * dielectric matrix)
  average eigenvalue GAMMA=   1.6097
  1.1192  1.3077  2.4022

 Free energy of the ion-electron system (eV)
  ---------------------------------------------------
  alpha Z        PSCENC =       335.91486942
  Ewald energy   TEWEN  =     -4385.70012428
  -Hartree energ DENC   =      -715.66320410
  -exchange      EXHF   =         0.00000000
  -V(xc)+E(xc)   XCENC  =       126.71125346
  PAW double counting   =      4963.57029453    -4899.75374550
  entropy T*S    EENTRO =        -0.00393411
  eigenvalues    EBANDS =      -293.27970530
  atomic energy  EATOM  =      4856.42966544
  Solvation  Ediel_sol  =         0.00000000
  ---------------------------------------------------
  free energy    TOTEN  =       -11.77463045 eV

  energy without entropy =      -11.77069633  energy(sigma->0) =      -11.77266339


--------------------------------------------------------------------------------------------------------




--------------------------------------- Iteration      1(   9)  ---------------------------------------


    POTLOK:  cpu time      0.0027: real time      0.0029
    SETDIJ:  cpu time      0.0018: real time      0.0018
     EDDAV:  cpu time      0.4163: real time      0.4185
       DOS:  cpu time      0.0004: real time      0.0004
    CHARGE:  cpu time      0.0146: real time      0.0147
    MIXING:  cpu time      0.0003: real time      0.0003
    --------------------------------------------
      LOOP:  cpu time      0.4362: real time      0.4387

 eigenvalue-minimisations  :  4296
 total energy-change (2. order) : 0.1844253E-03  (-0.2343087E-04)
 number of electron      31.9999979 magnetization 
 augmentation part        8.2285251 magnetization 

 Broyden mixing:
  rms(total) = 0.42946E-02    rms(broyden)= 0.42941E-02
  rms(prec ) = 0.46849E-02
  weight for this iteration     100.00

 eigenvalues of (default mixing * dielectric matrix)
  average eigenvalue GAMMA=   1.6959
  2.5340  1.0339  1.2507  1.9649

 Free energy of the ion-electron system (eV)
  ---------------------------------------------------
  alpha Z        PSCENC =       335.91486942
  Ewald energy   TEWEN  =     -4385.70012428
  -Hartree energ DENC   =      -715.96668547
  -exchange      EXHF   =         0.00000000
  -V(xc)+E(xc)   XCENC  =       126.72642020
  PAW double counting   =      4946.93976929    -4883.01961474
  entropy T*S    EENTRO =        -0.00391424
  eigenvalues    EBANDS =      -293.09483164
  atomic energy  EATOM  =      4856.42966544
  Solvation  Ediel_sol  =         0.00000000
  ---------------------------------------------------
  free energy    TOTEN  =       -11.77444602 eV

  energy without entropy =      -11.77053178  energy(sigma->0) =      -11.77248890


--------------------------------------------------------------------------------------------------------




--------------------------------------- Iteration      1(  10)  ---------------------------------------


    POTLOK:  cpu time      0.0027: real time      0.0029
    SETDIJ:  cpu time      0.0018: real time      0.0018
     EDDAV:  cpu time      0.4225: real time      0.4250
       DOS:  cpu time      0.0004: real time      0.0004
    CHARGE:  cpu time      0.0151: real time      0.0152
    MIXING:  cpu time      0.0003: real time      0.0003
    --------------------------------------------
      LOOP:  cpu time      0.4429: real time      0.4456

 eigenvalue-minimisations  :  4248
 total energy-change (2. order) :-0.1039756E-04  (-0.1032339E-05)
 number of electron      31.9999979 magnetization 
 augmentation part        8.2287219 magnetization 

 Broyden mixing:
  rms(total) = 0.10436E-02    rms(broyden)= 0.10434E-02
  rms(prec ) = 0.11893E-02
  weight for this iteration     100.00

 eigenvalues of (default mixing * dielectric matrix)
  average eigenvalue GAMMA=   1.7449
  2.6381  2.2423  0.9882  1.2507  1.6051

 Free energy of the ion-electron system (eV)
  ---------------------------------------------------
  alpha Z        PSCENC =       335.91486942
  Ewald energy   TEWEN  =     -4385.70012428
  -Hartree energ DENC   =      -715.97566373
  -exchange      EXHF   =         0.00000000
  -V(xc)+E(xc)   XCENC  =       126.72645511
  PAW double counting   =      4950.94208826    -4886.99382171
  entropy T*S    EENTRO =        -0.00391017
  eigenvalues    EBANDS =      -293.11401477
  atomic energy  EATOM  =      4856.42966544
  Solvation  Ediel_sol  =         0.00000000
  ---------------------------------------------------
  free energy    TOTEN  =       -11.77445642 eV

  energy without entropy =      -11.77054625  energy(sigma->0) =      -11.77250133


--------------------------------------------------------------------------------------------------------




--------------------------------------- Iteration      1(  11)  ---------------------------------------


    POTLOK:  cpu time      0.0028: real time      0.0030
    SETDIJ:  cpu time      0.0019: real time      0.0020
     EDDAV:  cpu time      0.2654: real time      0.2669
       DOS:  cpu time      0.0004: real time      0.0004
    --------------------------------------------
      LOOP:  cpu time      0.2705: real time      0.2722

 eigenvalue-minimisations  :  2904
 total energy-change (2. order) : 0.6404207E-06  (-0.7489066E-07)
 number of electron      31.9999979 magnetization 
 augmentation part        8.2287219 magnetization 

 Free energy of the ion-electron system (eV)
  ---------------------------------------------------
  alpha Z        PSCENC =       335.91486942
  Ewald energy   TEWEN  =     -4385.70012428
  -Hartree energ DENC   =      -715.99067629
  -exchange      EXHF   =         0.00000000
  -V(xc)+E(xc)   XCENC  =       126.72705928
  PAW double counting   =      4951.46688698    -4887.50478922
  entropy T*S    EENTRO =        -0.00391089
  eigenvalues    EBANDS =      -293.11343623
  atomic energy  EATOM  =      4856.42966544
  Solvation  Ediel_sol  =         0.00000000
  ---------------------------------------------------
  free energy    TOTEN  =       -11.77445578 eV

  energy without entropy =      -11.77054489  energy(sigma->0) =      -11.77250034


--------------------------------------------------------------------------------------------------------




 average (electrostatic) potential at core
  the test charge radii are     0.9952
  (the norm of the test charge is              1.0000)
       1 -87.8080       2 -87.8080
 
 
 
 E-fermi :  13.1346     XC(G=0): -14.3543     alpha+bet :-18.3635

 Fermi energy:        13.1346250028

 k-point     1 :       0.0000    0.0000    0.0000
  band No.  band energies     occupation 
      1     -39.9407      2.00000
      2     -39.6175      2.00000
      3     -39.6175      2.00000
      4     -39.5596      2.00000
      5     -39.5596      2.00000
      6     -39.4542      2.00000
      7       2.2953      2.00000
      8       5.0289      2.00000
      9       8.5200      2.00000
     10       9.1093      2.00000
     11       9.1093      2.00000
     12       9.5484      2.00000
     13       9.5484      2.00000
     14      11.0022      2.00000
     15      11.0022      2.00000
     16      11.9774      2.00000
     17      12.8814      2.00000
     18      12.8814      2.00000
     19      18.5288      0.00000
     20      28.0107      0.00000
     21      28.7722      0.00000
     22      30.3687      0.00000
     23      35.2453      0.00000
     24      35.2453      0.00000

 k-point     2 :       0.1000   -0.0000    0.0000
  band No.  band energies     occupation 
      1     -39.9227      2.00000
      2     -39.6699      2.00000
      3     -39.6325      2.00000
      4     -39.6134      2.00000
      5     -39.5697      2.00000
      6     -39.4574      2.00000
      7       2.6941      2.00000
      8       5.3938      2.00000
      9       8.4394      2.00000
     10       9.1175      2.00000
     11       9.3691      2.00000
     12       9.4288      2.00000
     13       9.8529      2.00000
     14      10.2646      2.00000
     15      10.7975      2.00000
     16      10.9299      2.00000
     17      12.9618      2.00000
     18      14.7101      0.00000
     19      18.4765      0.00000
     20      28.6237      0.00000
     21      29.3563      0.00000
     22      30.9478      0.00000
     23      33.3360      0.00000
     24      33.3919      0.00000

 k-point     3 :       0.2000   -0.0000    0.0000
  band No.  band energies     occupation 
      1     -39.8748      2.00000
      2     -39.8076      2.00000
      3     -39.7515      2.00000
      4     -39.6715      2.00000
      5     -39.5976      2.00000
      6     -39.4706      2.00000
      7       3.7682      2.00000
      8       6.1776      2.00000
      9       8.1736      2.00000
     10       8.6956      2.00000
     11       8.7910      2.00000
     12       9.8451      2.00000
     13      10.3367      2.00000
     14      10.3460      2.00000
     15      10.3478      2.00000
     16      10.7120      2.00000
     17      13.0887      1.80614
     18      17.0927      0.00000
     19      18.3528      0.00000
     20      27.9455      0.00000
     21      29.9859      0.00000
     22      31.1075      0.00000
     23      31.5550      0.00000
     24      31.6787      0.00000

 k-point     4 :       0.3000   -0.0000    0.0000
  band No.  band energies     occupation 
      1     -39.9757      2.00000
      2     -39.9179      2.00000
      3     -39.8069      2.00000
      4     -39.7187      2.00000
      5     -39.6331      2.00000
      6     -39.4943      2.00000
      7       5.0341      2.00000
      8       6.2604      2.00000
      9       7.4793      2.00000
     10       8.4881      2.00000
     11       8.9154      2.00000
     12       9.7551      2.00000
     13       9.8850      2.00000
     14      11.1882      2.00000
     15      11.6528      2.00000
     16      11.9387      2.00000
     17      13.1580      0.50921
     18      18.3870      0.00000
     19      19.4810      0.00000
     20      24.2358      0.00000
     21      28.4398      0.00000
     22      28.5325      0.00000
     23      31.2785      0.00000
     24      31.8073      0.00000

 k-point     5 :       0.4000   -0.0000    0.0000
  band No.  band energies     occupation 
      1     -40.1114      2.00000
      2     -40.0482      2.00000
      3     -39.7557      2.00000
      4     -39.7390      2.00000
      5     -39.6617      2.00000
      6     -39.5269      2.00000
      7       5.6455      2.00000
      8       5.9059      2.00000
      9       6.7208      2.00000
     10       9.0933      2.00000
     11       9.3254      2.00000
     12       9.5596      2.00000
     13       9.8283      2.00000
     14      12.9456      2.00000
     15      13.1629      0.42415
     16      13.1739      0.26637
     17      13.3424      0.00000
     18      19.0745      0.00000
     19      20.4872      0.00000
     20      21.5353      0.00000
     21      26.4070      0.00000
     22      26.6219      0.00000
     23      27.1864      0.00000
     24      30.5984      0.00000

 k-point     6 :       0.5000   -0.0000    0.0000
  band No.  band energies     occupation 
      1     -40.1629      2.00000
      2     -40.0981      2.00000
      3     -39.7701      2.00000
      4     -39.7054      2.00000
      5     -39.6730      2.00000
      6     -39.5473      2.00000
      7       5.6472      2.00000
      8       5.8231      2.00000
      9       6.4630      2.00000
     10       9.1704      2.00000
     11       9.4433      2.00000
     12       9.7008      2.00000
     13      10.0298      2.00000
     14      13.1733      0.27355
     15      13.4992      0.00000
     16      13.7431      0.00000
     17      15.6153      0.00000
     18      17.2477      0.00000
     19      20.9459      0.00000
     20      22.4829      0.00000
     21      23.5934      0.00000
     22      25.5143      0.00000
     23      26.6591      0.00000
     24      29.9741      0.00000

 k-point     7 :       0.1000    0.1000    0.0000
  band No.  band energies     occupation 
      1     -39.8900      2.00000
      2     -39.7559      2.00000
      3     -39.7197      2.00000
      4     -39.6506      2.00000
      5     -39.5965      2.00000
      6     -39.4661      2.00000
      7       3.4411      2.00000
      8       6.0269      2.00000
      9       8.1205      2.00000
     10       9.0225      2.00000
     11       9.1584      2.00000
     12       9.3730      2.00000
     13      10.0983      2.00000
     14      10.1067      2.00000
     15      10.5374      2.00000
     16      10.8591      2.00000
     17      12.9905      1.99995
     18      16.4713      0.00000
     19      18.3907      0.00000
     20      29.0306      0.00000
     21      30.1436      0.00000
     22      30.3434      0.00000
     23      31.4810      0.00000
     24      32.5912      0.00000

 k-point     8 :       0.2000    0.1000    0.0000
  band No.  band energies     occupation 
      1     -39.8976      2.00000
      2     -39.8606      2.00000
      3     -39.8319      2.00000
      4     -39.7058      2.00000
      5     -39.6392      2.00000
      6     -39.4847      2.00000
      7       4.7021      2.00000
      8       6.6702      2.00000
      9       7.9225      2.00000
     10       7.9540      2.00000
     11       8.7141      2.00000
     12       9.5150      2.00000
     13      10.0876      2.00000
     14      10.4301      2.00000
     15      11.3402      2.00000
     16      11.8267      2.00000
     17      12.9953      1.99992
     18      18.3701      0.00000
     19      18.7477      0.00000
     20      26.1657      0.00000
     21      28.0206      0.00000
     22      29.5219      0.00000
     23      31.6924      0.00000
     24      32.8718      0.00000

 k-point     9 :       0.3000    0.1000    0.0000
  band No.  band energies     occupation 
      1     -40.0440      2.00000
      2     -39.9919      2.00000
      3     -39.7625      2.00000
      4     -39.7620      2.00000
      5     -39.6797      2.00000
      6     -39.5144      2.00000
      7       5.7795      2.00000
      8       6.3641      2.00000
      9       7.0569      2.00000
     10       8.5114      2.00000
     11       9.1723      2.00000
     12       9.2328      2.00000
     13       9.8560      2.00000
     14      11.3732      2.00000
     15      12.6194      2.00000
     16      12.9822      1.99998
     17      13.4882      0.00000
     18      18.9082      0.00000
     19      21.0250      0.00000
     20      22.1980      0.00000
     21      25.7477      0.00000
     22      28.0986      0.00000
     23      29.3618      0.00000
     24      31.0174      0.00000

 k-point    10 :       0.4000    0.1000    0.0000
  band No.  band energies     occupation 
      1     -40.1343      2.00000
      2     -40.0713      2.00000
      3     -39.7961      2.00000
      4     -39.7056      2.00000
      5     -39.7044      2.00000
      6     -39.5469      2.00000
      7       5.9860      2.00000
      8       6.1316      2.00000
      9       6.5872      2.00000
     10       9.1131      2.00000
     11       9.3866      2.00000
     12       9.4098      2.00000
     13       9.7955      2.00000
     14      12.8319      2.00000
     15      12.9627      2.00000
     16      13.2892      0.00001
     17      15.3866      0.00000
     18      18.5841      0.00000
     19      20.6378      0.00000
     20      22.7390      0.00000
     21      23.5356      0.00000
     22      26.0333      0.00000
     23      27.2079      0.00000
     24      29.8938      0.00000

 k-point    11 :       0.2000    0.2000    0.0000
  band No.  band energies     occupation 
      1     -39.9815      2.00000
      2     -39.9780      2.00000
      3     -39.7712      2.00000
      4     -39.7695      2.00000
      5     -39.7115      2.00000
      6     -39.5102      2.00000
      7       5.9964      2.00000
      8       7.2907      2.00000
      9       7.3415      2.00000
     10       7.3999      2.00000
     11       8.9453      2.00000
     12       8.9724      2.00000
     13      10.0802      2.00000
     14      10.5064      2.00000
     15      12.5977      2.00000
     16      12.7786      2.00000
     17      13.5808      0.00000
     18      18.9204      0.00000
     19      20.9298      0.00000
     20      23.6412      0.00000
     21      24.5134      0.00000
     22      28.9391      0.00000
     23      30.9281      0.00000
     24      31.1295      0.00000

 k-point    12 :       0.3000    0.2000    0.0000
  band No.  band energies     occupation 
      1     -40.0687      2.00000
      2     -40.0256      2.00000
      3     -39.8435      2.00000
      4     -39.7728      2.00000
      5     -39.7062      2.00000
      6     -39.5461      2.00000
      7       6.7740      2.00000
      8       6.8361      2.00000
      9       6.9414      2.00000
     10       8.2750      2.00000
     11       8.7803      2.00000
     12       9.5101      2.00000
     13       9.5991      2.00000
     14      11.4362      2.00000
     15      12.6142      2.00000
     16      13.1236      1.24424
     17      15.4818      0.00000
     18      19.9332      0.00000
     19      20.8460      0.00000
     20      22.3766      0.00000
     21      23.1489      0.00000
     22      27.8468      0.00000
     23      28.3300      0.00000
     24      29.7210      0.00000

 k-point    13 :       0.4000    0.2000    0.0000
  band No.  band energies     occupation 
      1     -40.1009      2.00000
      2     -40.0374      2.00000
      3     -39.8792      2.00000
      4     -39.7964      2.00000
      5     -39.6694      2.00000
      6     -39.5718      2.00000
      7       6.6744      2.00000
      8       6.7610      2.00000
      9       6.8866      2.00000
     10       8.9224      2.00000
     11       8.9420      2.00000
     12       9.0722      2.00000
     13       9.9051      2.00000
     14      12.3342      2.00000
     15      12.5543      2.00000
     16      12.8997      2.00000
     17      17.1152      0.00000
     18      17.7772      0.00000
     19      21.0213      0.00000
     20      22.8702      0.00000
     21      24.3872      0.00000
     22      25.6573      0.00000
     23      27.8668      0.00000
     24      28.9627      0.00000

 k-point    14 :       0.3000    0.3000    0.0000
  band No.  band energies     occupation 
      1     -40.0489      2.00000
      2     -40.0006      2.00000
      3     -39.9332      2.00000
      4     -39.8722      2.00000
      5     -39.6490      2.00000
      6     -39.5882      2.00000
      7       6.7744      2.00000
      8       7.3595      2.00000
      9       7.6365      2.00000
     10       8.1383      2.00000
     11       8.7277      2.00000
     12       9.0425      2.00000
     13      10.0139      2.00000
     14      11.8616      2.00000
     15      12.3548      2.00000
     16      12.7069      2.00000
     17      17.1870      0.00000
     18      18.4315      0.00000
     19      19.8496      0.00000
     20      23.8673      0.00000
     21      25.4285      0.00000
     22      26.7887      0.00000
     23      27.7548      0.00000
     24      27.9613      0.00000

 k-point    15 :       0.0000    0.0000    0.1250
  band No.  band energies     occupation 
      1     -39.9221      2.00000
      2     -39.6148      2.00000
      3     -39.6147      2.00000
      4     -39.5614      2.00000
      5     -39.5614      2.00000
      6     -39.4732      2.00000
      7       2.4437      2.00000
      8       5.0177      2.00000
      9       8.4794      2.00000
     10       9.0867      2.00000
     11       9.0867      2.00000
     12       9.5022      2.00000
     13       9.5022      2.00000
     14      11.1196      2.00000
     15      11.1196      2.00000
     16      11.3571      2.00000
     17      12.8520      2.00000
     18      12.8520      2.00000
     19      19.3969      0.00000
     20      27.5542      0.00000
     21      29.3760      0.00000
     22      30.0504      0.00000
     23      34.3139      0.00000
     24      34.3139      0.00000

 k-point    16 :       0.1000   -0.0000    0.1250
  band No.  band energies     occupation 
      1     -39.9063      2.00000
      2     -39.6667      2.00000
      3     -39.6301      2.00000
      4     -39.6169      2.00000
      5     -39.5724      2.00000
      6     -39.4743      2.00000
      7       2.8392      2.00000
      8       5.3893      2.00000
      9       8.4424      2.00000
     10       9.0132      2.00000
     11       9.2414      2.00000
     12       9.3950      2.00000
     13       9.8010      2.00000
     14      10.2041      2.00000
     15      10.9357      2.00000
     16      10.9582      2.00000
     17      12.9180      2.00000
     18      14.1947      0.00000
     19      19.4593      0.00000
     20      28.1908      0.00000
     21      29.9094      0.00000
     22      30.6141      0.00000
     23      32.5523      0.00000
     24      33.4686      0.00000

 k-point    17 :       0.2000   -0.0000    0.1250
  band No.  band energies     occupation 
      1     -39.8711      2.00000
      2     -39.7945      2.00000
      3     -39.7558      2.00000
      4     -39.6686      2.00000
      5     -39.6007      2.00000
      6     -39.4833      2.00000
      7       3.8938      2.00000
      8       6.1976      2.00000
      9       8.2092      2.00000
     10       8.4230      2.00000
     11       8.7800      2.00000
     12       9.7021      2.00000
     13      10.1394      2.00000
     14      10.5516      2.00000
     15      10.6105      2.00000
     16      10.7606      2.00000
     17      13.0177      1.99905
     18      15.9279      0.00000
     19      19.7869      0.00000
     20      28.0239      0.00000
     21      29.8327      0.00000
     22      31.0204      0.00000
     23      31.2619      0.00000
     24      32.2139      0.00000

 k-point    18 :       0.3000   -0.0000    0.1250
  band No.  band energies     occupation 
      1     -39.9809      2.00000
      2     -39.9244      2.00000
      3     -39.7872      2.00000
      4     -39.7153      2.00000
      5     -39.6364      2.00000
      6     -39.5029      2.00000
      7       5.0808      2.00000
      8       6.2976      2.00000
      9       7.4712      2.00000
     10       8.2837      2.00000
     11       8.9436      2.00000
     12       9.8922      2.00000
     13       9.9575      2.00000
     14      11.2494      2.00000
     15      11.6777      2.00000
     16      11.8801      2.00000
     17      13.0739      1.91397
     18      17.1578      0.00000
     19      20.6919      0.00000
     20      24.5419      0.00000
     21      28.4328      0.00000
     22      28.8023      0.00000
     23      30.5694      0.00000
     24      32.3668      0.00000

 k-point    19 :       0.4000   -0.0000    0.1250
  band No.  band energies     occupation 
      1     -40.1139      2.00000
      2     -40.0546      2.00000
      3     -39.7521      2.00000
      4     -39.7258      2.00000
      5     -39.6654      2.00000
      6     -39.5311      2.00000
      7       5.5633      2.00000
      8       5.9011      2.00000
      9       6.9213      2.00000
     10       8.3416      2.00000
     11       9.6047      2.00000
     12       9.6586      2.00000
     13      10.4427      2.00000
     14      12.8531      2.00000
     15      12.9633      2.00000
     16      13.2424      0.00230
     17      13.2882      0.00001
     18      18.1443      0.00000
     19      20.5167      0.00000
     20      22.4160      0.00000
     21      26.2788      0.00000
     22      26.7249      0.00000
     23      27.6069      0.00000
     24      30.7815      0.00000

 k-point    20 :       0.5000   -0.0000    0.1250
  band No.  band energies     occupation 
      1     -40.1643      2.00000
      2     -40.1044      2.00000
      3     -39.7663      2.00000
      4     -39.6946      2.00000
      5     -39.6764      2.00000
      6     -39.5493      2.00000
      7       5.6159      2.00000
      8       5.6838      2.00000
      9       6.7457      2.00000
     10       8.4078      2.00000
     11       9.5485      2.00000
     12       9.7790      2.00000
     13      10.9407      2.00000
     14      12.9555      2.00000
     15      13.5239      0.00000
     16      13.7353      0.00000
     17      15.3209      0.00000
     18      17.1033      0.00000
     19      20.8411      0.00000
     20      21.6998      0.00000
     21      24.6339      0.00000
     22      25.8502      0.00000
     23      26.8141      0.00000
     24      30.2394      0.00000

 k-point    21 :       0.1000    0.1000    0.1250
  band No.  band energies     occupation 
      1     -39.8788      2.00000
      2     -39.7491      2.00000
      3     -39.7223      2.00000
      4     -39.6504      2.00000
      5     -39.5991      2.00000
      6     -39.4798      2.00000
      7       3.5759      2.00000
      8       6.0391      2.00000
      9       8.1572      2.00000
     10       8.6745      2.00000
     11       9.1014      2.00000
     12       9.3553      2.00000
     13      10.0243      2.00000
     14      10.2767      2.00000
     15      10.6284      2.00000
     16      10.9500      2.00000
     17      12.9307      2.00000
     18      15.5263      0.00000
     19      19.6612      0.00000
     20      28.8937      0.00000
     21      30.1739      0.00000
     22      30.4284      0.00000
     23      31.0318      0.00000
     24      32.8278      0.00000

 k-point    22 :       0.2000    0.1000    0.1250
  band No.  band energies     occupation 
      1     -39.9082      2.00000
      2     -39.8663      2.00000
      3     -39.8048      2.00000
      4     -39.7043      2.00000
      5     -39.6420      2.00000
      6     -39.4945      2.00000
      7       4.7961      2.00000
      8       6.7150      2.00000
      9       7.7607      2.00000
     10       8.0005      2.00000
     11       8.6649      2.00000
     12       9.4167      2.00000
     13      10.2471      2.00000
     14      10.4213      2.00000
     15      11.4703      2.00000
     16      11.7635      2.00000
     17      12.9344      2.00000
     18      16.8726      0.00000
     19      20.3832      0.00000
     20      26.3586      0.00000
     21      28.1537      0.00000
     22      29.5605      0.00000
     23      31.2543      0.00000
     24      33.3629      0.00000

 k-point    23 :       0.3000    0.1000    0.1250
  band No.  band energies     occupation 
      1     -40.0470      2.00000
      2     -39.9978      2.00000
      3     -39.7634      2.00000
      4     -39.7437      2.00000
      5     -39.6827      2.00000
      6     -39.5199      2.00000
      7       5.7391      2.00000
      8       6.4054      2.00000
      9       7.1536      2.00000
     10       8.1714      2.00000
     11       9.1740      2.00000
     12       9.6012      2.00000
     13       9.8757      2.00000
     14      11.3903      2.00000
     15      12.6761      2.00000
     16      12.7477      2.00000
     17      13.5663      0.00000
     18      18.0240      0.00000
     19      21.3046      0.00000
     20      23.0033      0.00000
     21      25.9131      0.00000
     22      28.0050      0.00000
     23      29.2484      0.00000
     24      31.2756      0.00000

 k-point    24 :       0.4000    0.1000    0.1250
  band No.  band energies     occupation 
      1     -40.1361      2.00000
      2     -40.0776      2.00000
      3     -39.7947      2.00000
      4     -39.7093      2.00000
      5     -39.6929      2.00000
      6     -39.5484      2.00000
      7       5.8735      2.00000
      8       6.0540      2.00000
      9       6.9163      2.00000
     10       8.3430      2.00000
     11       9.2442      2.00000
     12       9.9209      2.00000
[...]
      1     -39.9771      2.00000
      2     -39.9771      2.00000
      3     -39.6762      2.00000
      4     -39.6762      2.00000
      5     -39.6209      2.00000
      6     -39.6209      2.00000
      7       5.8545      2.00000
      8       5.8545      2.00000
      9       7.4804      2.00000
     10       7.4804      2.00000
     11       9.6739      2.00000
     12       9.6739      2.00000
     13      10.8786      2.00000
     14      10.8786      2.00000
     15      12.2888      2.00000
     16      12.2888      2.00000
     17      12.9946      1.99993
     18      12.9946      1.99993
     19      25.1664      0.00000
     20      25.1664      0.00000
     21      28.2276      0.00000
     22      28.2276      0.00000
     23      32.2099      0.00000
     24      32.2099      0.00000

 k-point    61 :       0.4000   -0.0000    0.5000
  band No.  band energies     occupation 
      1     -40.1070      2.00000
      2     -40.1070      2.00000
      3     -39.7092      2.00000
      4     -39.7092      2.00000
      5     -39.6045      2.00000
      6     -39.6045      2.00000
      7       5.6665      2.00000
      8       5.6665      2.00000
      9       7.1666      2.00000
     10       7.1666      2.00000
     11      11.0077      2.00000
     12      11.0077      2.00000
     13      11.3910      2.00000
     14      11.3910      2.00000
     15      13.1625      0.43040
     16      13.1625      0.43040
     17      13.7783      0.00000
     18      13.7783      0.00000
     19      22.2829      0.00000
     20      22.2829      0.00000
     21      27.8327      0.00000
     22      27.8327      0.00000
     23      30.3426      0.00000
     24      30.3426      0.00000

 k-point    62 :       0.5000   -0.0000    0.5000
  band No.  band energies     occupation 
      1     -40.1577      2.00000
      2     -40.1577      2.00000
      3     -39.7223      2.00000
      4     -39.7223      2.00000
      5     -39.5986      2.00000
      6     -39.5986      2.00000
      7       5.5481      2.00000
      8       5.5481      2.00000
      9       7.0414      2.00000
     10       7.0414      2.00000
     11      10.9880      2.00000
     12      10.9880      2.00000
     13      12.0403      2.00000
     14      12.0403      2.00000
     15      13.6388      0.00000
     16      13.6388      0.00000
     17      14.8218      0.00000
     18      14.8218      0.00000
     19      20.3796      0.00000
     20      20.3796      0.00000
     21      27.7275      0.00000
     22      27.7275      0.00000
     23      29.5021      0.00000
     24      29.5021      0.00000

 k-point    63 :       0.1000    0.1000    0.5000
  band No.  band energies     occupation 
      1     -39.7770      2.00000
      2     -39.7770      2.00000
      3     -39.6430      2.00000
      4     -39.6430      2.00000
      5     -39.6223      2.00000
      6     -39.6223      2.00000
      7       5.2379      2.00000
      8       5.2379      2.00000
      9       7.9425      2.00000
     10       7.9425      2.00000
     11       8.7521      2.00000
     12       8.7521      2.00000
     13       9.9725      2.00000
     14       9.9725      2.00000
     15      12.0368      2.00000
     16      12.0368      2.00000
     17      12.5327      2.00000
     18      12.5327      2.00000
     19      26.2916      0.00000
     20      26.2916      0.00000
     21      29.8379      0.00000
     22      29.8379      0.00000
     23      31.1588      0.00000
     24      31.1588      0.00000

 k-point    64 :       0.2000    0.1000    0.5000
  band No.  band energies     occupation 
      1     -39.9087      2.00000
      2     -39.9087      2.00000
      3     -39.6818      2.00000
      4     -39.6818      2.00000
      5     -39.6202      2.00000
      6     -39.6202      2.00000
      7       6.0192      2.00000
      8       6.0192      2.00000
      9       7.6937      2.00000
     10       7.6937      2.00000
     11       8.6769      2.00000
     12       8.6769      2.00000
     13      10.6895      2.00000
     14      10.6895      2.00000
     15      12.2590      2.00000
     16      12.2590      2.00000
     17      12.9068      2.00000
     18      12.9068      2.00000
     19      26.1801      0.00000
     20      26.1801      0.00000
     21      28.7518      0.00000
     22      28.7518      0.00000
     23      30.3452      0.00000
     24      30.3452      0.00000

 k-point    65 :       0.3000    0.1000    0.5000
  band No.  band energies     occupation 
      1     -40.0452      2.00000
      2     -40.0452      2.00000
      3     -39.7282      2.00000
      4     -39.7282      2.00000
      5     -39.6040      2.00000
      6     -39.6040      2.00000
      7       6.0395      2.00000
      8       6.0395      2.00000
      9       7.4370      2.00000
     10       7.4370      2.00000
     11       9.8045      2.00000
     12       9.8045      2.00000
     13      10.8231      2.00000
     14      10.8231      2.00000
     15      13.0060      1.99973
     16      13.0060      1.99973
     17      13.8613      0.00000
     18      13.8613      0.00000
     19      23.9015      0.00000
     20      23.9015      0.00000
     21      28.0682      0.00000
     22      28.0682      0.00000
     23      29.2411      0.00000
     24      29.2411      0.00000

 k-point    66 :       0.4000    0.1000    0.5000
  band No.  band energies     occupation 
      1     -40.1293      2.00000
      2     -40.1293      2.00000
      3     -39.7569      2.00000
      4     -39.7569      2.00000
      5     -39.5927      2.00000
      6     -39.5927      2.00000
      7       5.8535      2.00000
      8       5.8535      2.00000
      9       7.2299      2.00000
     10       7.2299      2.00000
     11      10.3378      2.00000
     12      10.3378      2.00000
     13      11.6350      2.00000
     14      11.6350      2.00000
     15      13.1139      1.44166
     16      13.1139      1.44166
     17      15.6611      0.00000
     18      15.6611      0.00000
     19      21.0047      0.00000
     20      21.0047      0.00000
     21      27.8819      0.00000
     22      27.8819      0.00000
     23      28.3257      0.00000
     24      28.3257      0.00000

 k-point    67 :       0.2000    0.2000    0.5000
  band No.  band energies     occupation 
      1     -40.0035      2.00000
      2     -40.0035      2.00000
      3     -39.7553      2.00000
      4     -39.7553      2.00000
      5     -39.6018      2.00000
      6     -39.6018      2.00000
      7       6.4542      2.00000
      8       6.4542      2.00000
      9       7.8957      2.00000
     10       7.8957      2.00000
     11       8.5500      2.00000
     12       8.5500      2.00000
     13      10.5180      2.00000
     14      10.5180      2.00000
     15      13.1271      1.16901
     16      13.1271      1.16901
     17      13.9921      0.00000
     18      13.9921      0.00000
     19      25.1266      0.00000
     20      25.1266      0.00000
     21      27.3327      0.00000
     22      27.3327      0.00000
     23      28.8599      0.00000
     24      28.8599      0.00000

 k-point    68 :       0.3000    0.2000    0.5000
  band No.  band energies     occupation 
      1     -40.0698      2.00000
      2     -40.0698      2.00000
      3     -39.8240      2.00000
      4     -39.8240      2.00000
      5     -39.5864      2.00000
      6     -39.5864      2.00000
      7       6.5030      2.00000
      8       6.5030      2.00000
      9       7.7499      2.00000
     10       7.7499      2.00000
     11       9.2284      2.00000
     12       9.2284      2.00000
     13      10.4648      2.00000
     14      10.4648      2.00000
     15      13.2039      0.05014
     16      13.2039      0.05014
     17      16.2931      0.00000
     18      16.2931      0.00000
     19      22.4107      0.00000
     20      22.4107      0.00000
     21      25.8750      0.00000
     22      25.8750      0.00000
     23      29.1446      0.00000
     24      29.1446      0.00000

 k-point    69 :       0.4000    0.2000    0.5000
  band No.  band energies     occupation 
      1     -40.0928      2.00000
      2     -40.0928      2.00000
      3     -39.8520      2.00000
      4     -39.8520      2.00000
      5     -39.5806      2.00000
      6     -39.5806      2.00000
      7       6.4900      2.00000
      8       6.4900      2.00000
      9       7.6576      2.00000
     10       7.6576      2.00000
     11       9.3107      2.00000
     12       9.3107      2.00000
     13      10.9671      2.00000
     14      10.9671      2.00000
     15      13.0350      1.99517
     16      13.0350      1.99517
     17      18.0350      0.00000
     18      18.0350      0.00000
     19      20.4529      0.00000
     20      20.4529      0.00000
     21      25.2101      0.00000
     22      25.2101      0.00000
     23      29.5358      0.00000
     24      29.5358      0.00000

 k-point    70 :       0.3000    0.3000    0.5000
  band No.  band energies     occupation 
      1     -40.0408      2.00000
      2     -40.0408      2.00000
      3     -39.9272      2.00000
      4     -39.9272      2.00000
      5     -39.5767      2.00000
      6     -39.5767      2.00000
      7       6.9955      2.00000
      8       6.9955      2.00000
      9       7.9428      2.00000
     10       7.9428      2.00000
     11       8.8500      2.00000
     12       8.8500      2.00000
     13      10.3271      2.00000
     14      10.3271      2.00000
     15      13.0147      1.99931
     16      13.0147      1.99931
     17      18.9624      0.00000
     18      18.9624      0.00000
     19      21.0719      0.00000
     20      21.0719      0.00000
     21      23.3958      0.00000
     22      23.3958      0.00000
     23      30.7729      0.00000
     24      30.7729      0.00000


--------------------------------------------------------------------------------------------------------


 soft charge-density along one line, spin component           1
         0         1         2         3         4         5         6         7         8         9
 total charge-density along one line
 
 pseudopotential strength for first ion, spin component:           1
-31.086  -0.000   0.000  10.137   0.000  -0.000  -0.000  -0.000
 -0.000 -31.019  -0.000   0.000  10.070   0.000  -0.000   0.000
  0.000  -0.000 -31.086  -0.000   0.000  10.137  -0.000  -0.000
 10.137   0.000  -0.000  16.492  -0.000   0.000   0.000   0.000
  0.000  10.070   0.000  -0.000  16.516  -0.000   0.000  -0.000
 -0.000   0.000  10.137   0.000  -0.000  16.492  -0.000   0.000
 -0.000  -0.000  -0.000   0.000   0.000  -0.000  -3.325  -0.000
 -0.000   0.000  -0.000   0.000  -0.000   0.000  -0.000  -3.280
  0.000  -0.000  -0.000  -0.000   0.000   0.000  -0.000  -0.000
 -0.000  -0.000  -0.000   0.000   0.000   0.000  -0.000   0.000
 -0.000  -0.000  -0.000  -0.000   0.000   0.000  -0.000   0.000
 -0.000  -0.000  -0.000   0.000   0.000  -0.000  -3.507  -0.000
 -0.000   0.000  -0.000   0.000  -0.000   0.000  -0.000  -3.457
  0.000  -0.000  -0.000  -0.000   0.000   0.000  -0.000  -0.000
 -0.000  -0.000  -0.000   0.000   0.000   0.000  -0.000   0.000
 -0.000  -0.000  -0.000  -0.000   0.000   0.000  -0.000   0.000
 -0.000   0.000   0.000  -0.000   0.000   0.000  -0.000   0.000
  0.000  -0.000  -0.000   0.000  -0.000  -0.000   0.000  -0.000
 total augmentation occupancy for first ion, spin component:           1
  2.003   0.000  -0.000  -0.022  -0.000   0.000   0.000   0.000  -0.000   0.000   0.005  -0.000  -0.000   0.000   0.000  -0.004
 -0.000   2.003   0.000   0.000  -0.020   0.000   0.000   0.000   0.000   0.000   0.000  -0.000   0.000   0.000  -0.000   0.000
 -0.000   0.000   2.003   0.000   0.000  -0.022   0.005   0.000   0.000   0.000   0.000  -0.004   0.000  -0.000   0.000  -0.000
 -0.022  -0.000  -0.000   0.061  -0.000  -0.000  -0.000   0.000   0.000   0.000  -0.032   0.000   0.000  -0.000   0.000   0.030
 -0.000  -0.020   0.000  -0.000   0.051   0.000   0.000  -0.000   0.000   0.000   0.000   0.000   0.000   0.000   0.000  -0.000
  0.000   0.000  -0.022   0.000   0.000   0.061  -0.032   0.000  -0.000   0.000  -0.000   0.030   0.000   0.000  -0.000   0.000
  0.000   0.000   0.005  -0.000   0.000  -0.032   6.337   0.000   0.000   0.000   0.000  -3.772   0.000  -0.000  -0.000  -0.000
  0.000  -0.000   0.000  -0.000  -0.000   0.000   0.000   5.458  -0.000   0.000  -0.000  -0.000  -3.309   0.000   0.000   0.000
 -0.000   0.000   0.000   0.000   0.000  -0.000   0.000  -0.000   6.407   0.000  -0.000  -0.000   0.000  -3.843   0.000   0.000
  0.000   0.000   0.000   0.000  -0.000   0.000  -0.000   0.000   0.000   5.458   0.000   0.000   0.000   0.000  -3.309  -0.000
  0.005   0.000   0.000  -0.032   0.000  -0.000   0.000   0.000  -0.000   0.000   6.337  -0.000  -0.000   0.000   0.000  -3.772
 -0.000   0.000  -0.004   0.000   0.000   0.030  -3.772  -0.000  -0.000  -0.000  -0.000   2.985   0.000   0.000   0.000   0.000
 -0.000  -0.000   0.000   0.000  -0.000   0.000  -0.000  -3.309  -0.000   0.000  -0.000  -0.000   3.032   0.000  -0.000   0.000
  0.000   0.000  -0.000  -0.000   0.000   0.000  -0.000  -0.000  -3.843   0.000   0.000   0.000  -0.000   3.047  -0.000  -0.000
  0.000   0.000  -0.000   0.000   0.000  -0.000   0.000   0.000   0.000  -3.309   0.000   0.000  -0.000   0.000   3.032  -0.000
 -0.004  -0.000  -0.000   0.030   0.000   0.000  -0.000  -0.000   0.000   0.000  -3.772   0.000   0.000  -0.000  -0.000   2.985
  0.000   0.000  -0.000  -0.000   0.000   0.000  -0.000   0.000  -0.245   0.000   0.000   0.000   0.000   0.224   0.000   0.000
  0.000   0.000  -0.000  -0.000   0.000   0.000  -0.000  -0.000   0.004   0.000   0.000   0.000   0.000   0.001   0.000  -0.000


------------------------ aborting loop because EDIFF is reached ----------------------------------------





 total charge

# of ion       s       p       d       tot
------------------------------------------
    1        0.362   6.104   7.097  13.564
    2        0.362   6.104   7.097  13.564
--------------------------------------------------
tot          0.725  12.209  14.194  27.127
 
    CHARGE:  cpu time      0.0146: real time      0.0146
    FORLOC:  cpu time      0.0001: real time      0.0001
    FORNL :  cpu time      0.0147: real time      0.0148
    STRESS:  cpu time      0.1622: real time      0.1629
    FORCOR:  cpu time      0.0024: real time      0.0024
    FORHAR:  cpu time      0.0005: real time      0.0005
    MIXING:  cpu time      0.0002: real time      0.0002
    OFIELD:  cpu time      0.0000: real time      0.0000

  FORCE on cell =-STRESS in cart. coord.  units (eV):
  Direction    XX          YY          ZZ          XY          YZ          ZX
  --------------------------------------------------------------------------------------
  Alpha Z   335.91487   335.91487   335.91487
  Ewald   -1422.58146 -1422.58146 -1540.53926     0.00000     0.00000     0.00000
  Hartree   255.00586   255.00586   205.98111    -0.00000    -0.00000    -0.00000
  E(xc)    -171.66783  -171.66784  -171.90336    -0.00000    -0.00000    -0.00000
  Local     221.88598   221.88602   375.67024     0.00003    -0.00000    -0.00000
  n-local   -54.46250   -57.22406   -58.13804   -13.92772     3.77770     3.38906
  augment   145.40565   145.40561   149.09875    -0.00004    -0.00000    -0.00000
  Kinetic   700.26452   694.49309   708.69140   -18.20635     3.94606     1.01283
  Fock        0.00000     0.00000     0.00000     0.00000     0.00000     0.00000
  -------------------------------------------------------------------------------------
  Total       5.49859     5.49859     4.77571     0.00000     0.00000    -0.00000
  in kB     308.34975   308.34975   267.81214     0.00000     0.00000    -0.00000
  external pressure =      294.84 kB  Pullay stress =        0.00 kB


 VOLUME and BASIS-vectors are now :
 -----------------------------------------------------------------------------
  energy-cutoff  :      450.00
  volume of cell :       28.57
      direct lattice vectors                 reciprocal lattice vectors
     2.670382958  0.000000000  0.000000000     0.374478124  0.216205046  0.000000000
    -1.335191479  2.312619480  0.000000000     0.000000000  0.432410091  0.000000000
     0.000000000  0.000000000  4.626376242     0.000000000  0.000000000  0.216151897

  length of vectors
     2.670382958  2.670382958  4.626376242     0.432410091  0.432410091  0.216151897


 FORCES acting on ions
    electron-ion (+dipol)            ewald-force                    non-local-force                 convergence-correction
 -----------------------------------------------------------------------------------------------
   -.830E-08 0.479E-08 0.118E-12   0.206E-11 -.118E-11 -.728E-13   -.347E-16 0.278E-16 0.000E+00   0.102E-08 -.592E-09 -.432E-13
   0.827E-08 -.477E-08 -.193E-11   -.204E-11 0.118E-11 0.728E-13   0.208E-16 -.278E-16 0.000E+00   -.102E-08 0.592E-09 -.108E-12
 -----------------------------------------------------------------------------------------------
   -.360E-10 0.212E-10 -.181E-11   0.129E-13 -.762E-14 0.000E+00   -.139E-16 0.000E+00 0.000E+00   0.115E-13 -.832E-13 -.151E-12
 
 
 POSITION                                       TOTAL-FORCE (eV/Angst)
 -----------------------------------------------------------------------------------
      0.00000      0.00000      0.00000        -0.000000      0.000000      0.000000
      0.00000      1.54175      2.31319         0.000000     -0.000000      0.000000
 -----------------------------------------------------------------------------------
    total drift:                               -0.000000      0.000000     -0.000000


--------------------------------------------------------------------------------------------------------



  FREE ENERGIE OF THE ION-ELECTRON SYSTEM (eV)
  ---------------------------------------------------
  free  energy   TOTEN  =       -11.77445578 eV

  energy  without entropy=      -11.77054489  energy(sigma->0) =      -11.77250034
 


--------------------------------------------------------------------------------------------------------


    POTLOK:  cpu time      0.0048: real time      0.0050


--------------------------------------------------------------------------------------------------------




--------------------------------------------------------------------------------------------------------


  
 reached required accuracy - stopping structural energy minimisation
 writing wavefunctions
     LOOP+:  cpu time      4.6122: real time      4.7293
    4ORBIT:  cpu time      0.0000: real time      0.0000



 total charge

# of ion       s       p       d       tot
------------------------------------------
    1        0.362   6.104   7.097  13.564
    2        0.362   6.104   7.097  13.564
--------------------------------------------------
tot          0.725  12.209  14.194  27.127
 

 total amount of memory used by VASP MPI-rank0    38202. kBytes
=======================================================================

   base      :      30000. kBytes
   nonl-proj :       6552. kBytes
   fftplans  :        195. kBytes
   grid      :        645. kBytes
   one-center:         31. kBytes
   wavefun   :        779. kBytes
 
  
  
 General timing and accounting informations for this job:
 ========================================================
  
                  Total CPU time used (sec):        5.497
                            User time (sec):        4.993
                          System time (sec):        0.504
                         Elapsed time (sec):        7.154
  
                   Maximum memory used (kb):      228420.
                   Average memory used (kb):          N/A
  
                          Minor page faults:        25256
                          Major page faults:           66
                 Voluntary context switches:         2672
