PROCAR lm decomposed
# of k-points:   70         # of bands:   24         # of ions:    2

 k-point     1 :    0.00000000 0.00000000 0.00000000     weight = 0.00125000

band     1 # energy  -39.94065117 # occ.  2.00000000
 
ion      s     py     pz     px    dxy    dyz    dz2    dxz  x2-y2    tot
    1  0.000  0.000  0.490  0.000  0.000  0.000  0.000  0.000  0.000  0.490
    2  0.000  0.000  0.490  0.000  0.000  0.000  0.000  0.000  0.000  0.490
tot    0.000  0.000  0.980  0.000  0.000  0.000  0.000  0.000  0.000  0.980
 
band     2 # energy  -39.61753867 # occ.  2.00000000
 
ion      s     py     pz     px    dxy    dyz    dz2    dxz  x2-y2    tot
    1  0.000  0.125  0.000  0.374  0.000  0.000  0.000  0.000  0.000  0.498
    2  0.000  0.125  0.000  0.374  0.000  0.000  0.000  0.000  0.000  0.498
tot    0.000  0.249  0.000  0.747  0.000  0.000  0.000  0.000  0.000  0.997
 
band     3 # energy  -39.61753736 # occ.  2.00000000
 
ion      s     py     pz     px    dxy    dyz    dz2    dxz  x2-y2    tot
    1  0.000  0.374  0.000  0.125  0.000  0.000  0.000  0.000  0.000  0.498
    2  0.000  0.374  0.000  0.125  0.000  0.000  0.000  0.000  0.000  0.498
tot    0.000  0.747  0.000  0.249  0.000  0.000  0.000  0.000  0.000  0.997
 
band     4 # energy  -39.55963976 # occ.  2.00000000
 
ion      s     py     pz     px    dxy    dyz    dz2    dxz  x2-y2    tot
    1  0.000  0.125  0.000  0.374  0.000  0.000  0.000  0.000  0.000  0.499
    2  0.000  0.125  0.000  0.374  0.000  0.000  0.000  0.000  0.000  0.499
tot    0.000  0.250  0.000  0.749  0.000  0.000  0.000  0.000  0.000  0.998
 
band     5 # energy  -39.55963844 # occ.  2.00000000
 
ion      s     py     pz     px    dxy    dyz    dz2    dxz  x2-y2    tot
    1  0.000  0.374  0.000  0.125  0.000  0.000  0.000  0.000  0.000  0.499
    2  0.000  0.374  0.000  0.125  0.000  0.000  0.000  0.000  0.000  0.499
tot    0.000  0.749  0.000  0.250  0.000  0.000  0.000  0.000  0.000  0.998
 
band     6 # energy  -39.45416096 # occ.  2.00000000
 
ion      s     py     pz     px    dxy    dyz    dz2    dxz  x2-y2    tot
    1  0.000  0.000  0.498  0.000  0.000  0.000  0.000  0.000  0.000  0.498
    2  0.000  0.000  0.498  0.000  0.000  0.000  0.000  0.000  0.000  0.498
tot    0.000  0.000  0.996  0.000  0.000  0.000  0.000  0.000  0.000  0.996
 
band     7 # energy    2.29532249 # occ.  2.00000000
 
ion      s     py     pz     px    dxy    dyz    dz2    dxz  x2-y2    tot
    1  0.212  0.000  0.000  0.000  0.000  0.000  0.000  0.000  0.000  0.212
    2  0.212  0.000  0.000  0.000  0.000  0.000  0.000  0.000  0.000  0.212
tot    0.424  0.000  0.000  0.000  0.000  0.000  0.001  0.000  0.000  0.425
 
band     8 # energy    5.02888227 # occ.  2.00000000
 
ion      s     py     pz     px    dxy    dyz    dz2    dxz  x2-y2    tot
    1  0.087  0.000  0.000  0.000  0.000  0.000  0.240  0.000  0.000  0.327
    2  0.087  0.000  0.000  0.000  0.000  0.000  0.240  0.000  0.000  0.327
tot    0.175  0.000  0.000  0.000  0.000  0.000  0.480  0.000  0.000  0.654
 
band     9 # energy    8.52003799 # occ.  2.00000000
 
ion      s     py     pz     px    dxy    dyz    dz2    dxz  x2-y2    tot
    1  0.000  0.000  0.000  0.000  0.000  0.000  0.419  0.000  0.000  0.419
    2  0.000  0.000  0.000  0.000  0.000  0.000  0.419  0.000  0.000  0.419
tot    0.000  0.000  0.000  0.000  0.000  0.000  0.837  0.000  0.000  0.837
 
band    10 # energy    9.10932227 # occ.  2.00000000
 
ion      s     py     pz     px    dxy    dyz    dz2    dxz  x2-y2    tot
    1  0.000  0.000  0.000  0.000  0.107  0.000  0.000  0.000  0.320  0.427
    2  0.000  0.000  0.000  0.000  0.107  0.000  0.000  0.000  0.320  0.427
tot    0.000  0.000  0.000  0.000  0.213  0.000  0.000  0.000  0.640  0.854
 
band    11 # energy    9.10932299 # occ.  2.00000000
 
ion      s     py     pz     px    dxy    dyz    dz2    dxz  x2-y2    tot
    1  0.000  0.000  0.000  0.000  0.320  0.000  0.000  0.000  0.107  0.427
    2  0.000  0.000  0.000  0.000  0.320  0.000  0.000  0.000  0.107  0.427
tot    0.000  0.000  0.000  0.000  0.640  0.000  0.000  0.000  0.213  0.854
 
band    12 # energy    9.54841012 # occ.  2.00000000
 
ion      s     py     pz     px    dxy    dyz    dz2    dxz  x2-y2    tot
    1  0.000  0.000  0.000  0.000  0.109  0.000  0.000  0.000  0.328  0.437
    2  0.000  0.000  0.000  0.000  0.109  0.000  0.000  0.000  0.328  0.437
tot    0.000  0.000  0.000  0.000  0.218  0.000  0.000  0.000  0.655  0.874
 
band    13 # energy    9.54841087 # occ.  2.00000000
 
ion      s     py     pz     px    dxy    dyz    dz2    dxz  x2-y2    tot
    1  0.000  0.000  0.000  0.000  0.328  0.000  0.000  0.000  0.109  0.437
    2  0.000  0.000  0.000  0.000  0.328  0.000  0.000  0.000  0.109  0.437
tot    0.000  0.000  0.000  0.000  0.655  0.000  0.000  0.000  0.218  0.874
 
band    14 # energy   11.00216813 # occ.  2.00000000
 
ion      s     py     pz     px    dxy    dyz    dz2    dxz  x2-y2    tot
    1  0.000  0.000  0.000  0.000  0.000  0.112  0.000  0.336  0.000  0.448
    2  0.000  0.000  0.000  0.000  0.000  0.112  0.000  0.336  0.000  0.448
tot    0.000  0.000  0.000  0.000  0.000  0.224  0.000  0.672  0.000  0.896
 
band    15 # energy   11.00216876 # occ.  2.00000000
 
ion      s     py     pz     px    dxy    dyz    dz2    dxz  x2-y2    tot
    1  0.000  0.000  0.000  0.000  0.000  0.336  0.000  0.112  0.000  0.448
    2  0.000  0.000  0.000  0.000  0.000  0.336  0.000  0.112  0.000  0.448
tot    0.000  0.000  0.000  0.000  0.000  0.672  0.000  0.224  0.000  0.896
 
band    16 # energy   11.97744000 # occ.  2.00000000
 
ion      s     py     pz     px    dxy    dyz    dz2    dxz  x2-y2    tot
    1  0.000  0.000  0.097  0.000  0.000  0.000  0.000  0.000  0.000  0.097
    2  0.000  0.000  0.097  0.000  0.000  0.000  0.000  0.000  0.000  0.097
tot    0.000  0.000  0.194  0.000  0.000  0.000  0.000  0.000  0.000  0.194
 
band    17 # energy   12.88136605 # occ.  2.00000000
 
ion      s     py     pz     px    dxy    dyz    dz2    dxz  x2-y2    tot
    1  0.000  0.000  0.000  0.000  0.000  0.117  0.000  0.351  0.000  0.468
    2  0.000  0.000  0.000  0.000  0.000  0.117  0.000  0.351  0.000  0.468
tot    0.000  0.000  0.000  0.000  0.000  0.234  0.000  0.701  0.000  0.935
 
band    18 # energy   12.88136677 # occ.  2.00000000
 
ion      s     py     pz     px    dxy    dyz    dz2    dxz  x2-y2    tot
    1  0.000  0.000  0.000  0.000  0.000  0.351  0.000  0.117  0.000  0.468
    2  0.000  0.000  0.000  0.000  0.000  0.351  0.000  0.117  0.000  0.468
tot    0.000  0.000  0.000  0.000  0.000  0.701  0.000  0.234  0.000  0.935
 
band    19 # energy   18.52875985 # occ.  0.00000000
 
ion      s     py     pz     px    dxy    dyz    dz2    dxz  x2-y2    tot
    1  0.189  0.000  0.000  0.000  0.000  0.000  0.225  0.000  0.000  0.414
    2  0.189  0.000  0.000  0.000  0.000  0.000  0.225  0.000  0.000  0.414
tot    0.377  0.000  0.000  0.000  0.000  0.000  0.450  0.000  0.000  0.827
 
band    20 # energy   28.01067999 # occ.  0.00000000
 
ion      s     py     pz     px    dxy    dyz    dz2    dxz  x2-y2    tot
    1  0.003  0.000  0.000  0.000  0.000  0.000  0.002  0.000  0.000  0.005
    2  0.003  0.000  0.000  0.000  0.000  0.000  0.002  0.000  0.000  0.005
tot    0.006  0.000  0.000  0.000  0.000  0.000  0.004  0.000  0.000  0.011
 
band    21 # energy   28.77220655 # occ.  0.00000000
 
ion      s     py     pz     px    dxy    dyz    dz2    dxz  x2-y2    tot
    1  0.000  0.000  0.018  0.000  0.000  0.000  0.000  0.000  0.000  0.018
    2  0.000  0.000  0.018  0.000  0.000  0.000  0.000  0.000  0.000  0.018
tot    0.000  0.000  0.037  0.000  0.000  0.000  0.000  0.000  0.000  0.037
 
band    22 # energy   30.36874488 # occ.  0.00000000
 
ion      s     py     pz     px    dxy    dyz    dz2    dxz  x2-y2    tot
    1  0.000  0.000  0.000  0.000  0.000  0.000  0.019  0.000  0.000  0.019
    2  0.000  0.000  0.000  0.000  0.000  0.000  0.019  0.000  0.000  0.019
tot    0.000  0.000  0.000  0.000  0.000  0.000  0.038  0.000  0.000  0.038
 
band    23 # energy   35.24528052 # occ.  0.00000000
 
ion      s     py     pz     px    dxy    dyz    dz2    dxz  x2-y2    tot
    1  0.000  0.018  0.000  0.111  0.020  0.000  0.000  0.000  0.003  0.152
    2  0.000  0.018  0.000  0.111  0.020  0.000  0.000  0.000  0.003  0.152
tot    0.000  0.036  0.000  0.222  0.040  0.000  0.000  0.000  0.006  0.304
 
band    24 # energy   35.24528108 # occ.  0.00000000
 
ion      s     py     pz     px    dxy    dyz    dz2    dxz  x2-y2    tot
    1  0.000  0.111  0.000  0.018  0.003  0.000  0.000  0.000  0.020  0.152
    2  0.000  0.111  0.000  0.018  0.003  0.000  0.000  0.000  0.020  0.152
tot    0.000  0.222  0.000  0.036  0.006  0.000  0.000  0.000  0.040  0.304
 

 k-point     2 :    0.10000000-0.00000000 0.00000000     weight = 0.00750000

band     1 # energy  -39.92267685 # occ.  2.00000000
 
ion      s     py     pz     px    dxy    dyz    dz2    dxz  x2-y2    tot
    1  0.000  0.000  0.490  0.000  0.000  0.000  0.000  0.000  0.000  0.490
    2  0.000  0.000  0.490  0.000  0.000  0.000  0.000  0.000  0.000  0.490
tot    0.000  0.000  0.981  0.000  0.000  0.000  0.000  0.000  0.000  0.981
 
band     2 # energy  -39.66993143 # occ.  2.00000000
 
ion      s     py     pz     px    dxy    dyz    dz2    dxz  x2-y2    tot
    1  0.000  0.124  0.000  0.373  0.000  0.000  0.000  0.000  0.000  0.498
    2  0.000  0.124  0.000  0.373  0.000  0.000  0.000  0.000  0.000  0.498
tot    0.000  0.249  0.000  0.746  0.000  0.000  0.000  0.000  0.000  0.995
 
band     3 # energy  -39.63246960 # occ.  2.00000000
 
ion      s     py     pz     px    dxy    dyz    dz2    dxz  x2-y2    tot
    1  0.000  0.374  0.000  0.125  0.000  0.000  0.000  0.000  0.000  0.498
    2  0.000  0.374  0.000  0.125  0.000  0.000  0.000  0.000  0.000  0.498
tot    0.000  0.747  0.000  0.249  0.000  0.000  0.000  0.000  0.000  0.996
 
band     4 # energy  -39.61335144 # occ.  2.00000000
 
ion      s     py     pz     px    dxy    dyz    dz2    dxz  x2-y2    tot
    1  0.000  0.125  0.000  0.374  0.000  0.000  0.000  0.000  0.000  0.498
    2  0.000  0.125  0.000  0.374  0.000  0.000  0.000  0.000  0.000  0.498
tot    0.000  0.249  0.000  0.747  0.000  0.000  0.000  0.000  0.000  0.997
 
band     5 # energy  -39.56971461 # occ.  2.00000000
 
ion      s     py     pz     px    dxy    dyz    dz2    dxz  x2-y2    tot
    1  0.000  0.374  0.000  0.125  0.000  0.000  0.000  0.000  0.000  0.499
    2  0.000  0.374  0.000  0.125  0.000  0.000  0.000  0.000  0.000  0.499
tot    0.000  0.748  0.000  0.249  0.000  0.000  0.000  0.000  0.000  0.998
 
band     6 # energy  -39.45744074 # occ.  2.00000000
 
ion      s     py     pz     px    dxy    dyz    dz2    dxz  x2-y2    tot
    1  0.000  0.000  0.498  0.000  0.000  0.000  0.000  0.000  0.000  0.498
    2  0.000  0.000  0.498  0.000  0.000  0.000  0.000  0.000  0.000  0.498
tot    0.000  0.000  0.996  0.000  0.000  0.000  0.000  0.000  0.000  0.996
 
band     7 # energy    2.69405331 # occ.  2.00000000
 
ion      s     py     pz     px    dxy    dyz    dz2    dxz  x2-y2    tot
    1  0.207  0.001  0.000  0.002  0.000  0.000  0.000  0.000  0.000  0.211
    2  0.207  0.001  0.000  0.002  0.000  0.000  0.000  0.000  0.000  0.211
tot    0.415  0.001  0.000  0.004  0.001  0.000  0.000  0.000  0.000  0.421
 
band     8 # energy    5.39379829 # occ.  2.00000000
 
ion      s     py     pz     px    dxy    dyz    dz2    dxz  x2-y2    tot
    1  0.080  0.001  0.000  0.002  0.002  0.000  0.243  0.000  0.001  0.328
    2  0.080  0.001  0.000  0.002  0.002  0.000  0.243  0.000  0.001  0.328
tot    0.160  0.001  0.000  0.004  0.004  0.000  0.486  0.000  0.001  0.656
 
band     9 # energy    8.43942864 # occ.  2.00000000
 
ion      s     py     pz     px    dxy    dyz    dz2    dxz  x2-y2    tot
    1  0.000  0.000  0.000  0.000  0.117  0.000  0.257  0.000  0.039  0.414
    2  0.000  0.000  0.000  0.000  0.117  0.000  0.257  0.000  0.039  0.414
tot    0.000  0.000  0.000  0.001  0.235  0.000  0.513  0.000  0.078  0.827
 
band    10 # energy    9.11750688 # occ.  2.00000000
 
ion      s     py     pz     px    dxy    dyz    dz2    dxz  x2-y2    tot
    1  0.000  0.000  0.000  0.000  0.212  0.000  0.141  0.000  0.071  0.424
    2  0.000  0.000  0.000  0.000  0.212  0.000  0.141  0.000  0.071  0.424
tot    0.000  0.000  0.000  0.001  0.424  0.000  0.282  0.000  0.141  0.848
 
band    11 # energy    9.36913025 # occ.  2.00000000
 
ion      s     py     pz     px    dxy    dyz    dz2    dxz  x2-y2    tot
    1  0.002  0.000  0.000  0.000  0.302  0.000  0.024  0.000  0.101  0.429
    2  0.002  0.000  0.000  0.000  0.302  0.000  0.024  0.000  0.101  0.429
tot    0.004  0.000  0.000  0.001  0.605  0.000  0.047  0.000  0.202  0.859
 
band    12 # energy    9.42882054 # occ.  2.00000000
 
ion      s     py     pz     px    dxy    dyz    dz2    dxz  x2-y2    tot
    1  0.000  0.000  0.000  0.000  0.107  0.000  0.000  0.000  0.321  0.428
    2  0.000  0.000  0.000  0.000  0.107  0.000  0.000  0.000  0.321  0.428
tot    0.000  0.001  0.000  0.000  0.214  0.000  0.000  0.000  0.641  0.856
 
band    13 # energy    9.85288250 # occ.  2.00000000
 
ion      s     py     pz     px    dxy    dyz    dz2    dxz  x2-y2    tot
    1  0.000  0.000  0.000  0.000  0.109  0.000  0.000  0.000  0.328  0.438
    2  0.000  0.000  0.000  0.000  0.109  0.000  0.000  0.000  0.328  0.438
tot    0.000  0.001  0.000  0.000  0.219  0.000  0.000  0.000  0.657  0.877
 
band    14 # energy   10.26458889 # occ.  2.00000000
 
ion      s     py     pz     px    dxy    dyz    dz2    dxz  x2-y2    tot
    1  0.000  0.000  0.027  0.000  0.000  0.075  0.000  0.225  0.000  0.328
    2  0.000  0.000  0.027  0.000  0.000  0.075  0.000  0.225  0.000  0.328
tot    0.000  0.000  0.055  0.000  0.000  0.150  0.000  0.450  0.000  0.655
 
band    15 # energy   10.79754690 # occ.  2.00000000
 
ion      s     py     pz     px    dxy    dyz    dz2    dxz  x2-y2    tot
    1  0.000  0.000  0.000  0.000  0.000  0.332  0.000  0.111  0.000  0.443
    2  0.000  0.000  0.000  0.000  0.000  0.332  0.000  0.111  0.000  0.443
tot    0.000  0.000  0.000  0.000  0.000  0.665  0.000  0.222  0.000  0.886
 
band    16 # energy   10.92987720 # occ.  2.00000000
 
ion      s     py     pz     px    dxy    dyz    dz2    dxz  x2-y2    tot
    1  0.000  0.000  0.021  0.000  0.000  0.086  0.000  0.258  0.000  0.365
    2  0.000  0.000  0.021  0.000  0.000  0.086  0.000  0.258  0.000  0.365
tot    0.000  0.000  0.043  0.000  0.000  0.172  0.000  0.516  0.000  0.731
 
band    17 # energy   12.96176012 # occ.  1.99999899
 
ion      s     py     pz     px    dxy    dyz    dz2    dxz  x2-y2    tot
    1  0.000  0.000  0.000  0.000  0.000  0.353  0.000  0.118  0.000  0.471
    2  0.000  0.000  0.000  0.000  0.000  0.353  0.000  0.118  0.000  0.471
tot    0.000  0.000  0.000  0.000  0.000  0.706  0.000  0.235  0.000  0.941
 
band    18 # energy   14.71011949 # occ.  0.00000000
 
ion      s     py     pz     px    dxy    dyz    dz2    dxz  x2-y2    tot
    1  0.000  0.000  0.049  0.000  0.000  0.066  0.000  0.198  0.000  0.313
    2  0.000  0.000  0.049  0.000  0.000  0.066  0.000  0.198  0.000  0.313
tot    0.000  0.000  0.099  0.000  0.000  0.132  0.000  0.395  0.000  0.626
 
band    19 # energy   18.47652383 # occ.  0.00000000
 
ion      s     py     pz     px    dxy    dyz    dz2    dxz  x2-y2    tot
    1  0.189  0.000  0.000  0.001  0.002  0.000  0.217  0.000  0.001  0.410
    2  0.189  0.000  0.000  0.001  0.002  0.000  0.217  0.000  0.001  0.410
tot    0.379  0.000  0.000  0.001  0.004  0.000  0.434  0.000  0.001  0.819
 
band    20 # energy   28.62374105 # occ.  0.00000000
 
ion      s     py     pz     px    dxy    dyz    dz2    dxz  x2-y2    tot
    1  0.004  0.000  0.000  0.001  0.016  0.000  0.002  0.000  0.005  0.031
    2  0.004  0.000  0.000  0.001  0.016  0.000  0.002  0.000  0.005  0.031
tot    0.009  0.001  0.000  0.003  0.032  0.000  0.005  0.000  0.011  0.061
 
band    21 # energy   29.35631641 # occ.  0.00000000
 
ion      s     py     pz     px    dxy    dyz    dz2    dxz  x2-y2    tot
    1  0.000  0.000  0.016  0.000  0.000  0.002  0.000  0.006  0.000  0.024
    2  0.000  0.000  0.016  0.000  0.000  0.002  0.000  0.006  0.000  0.024
tot    0.000  0.000  0.032  0.000  0.000  0.004  0.000  0.012  0.000  0.048
 
band    22 # energy   30.94777127 # occ.  0.00000000
 
ion      s     py     pz     px    dxy    dyz    dz2    dxz  x2-y2    tot
    1  0.001  0.002  0.000  0.005  0.015  0.000  0.023  0.000  0.005  0.050
    2  0.001  0.002  0.000  0.005  0.015  0.000  0.023  0.000  0.005  0.050
tot    0.002  0.003  0.000  0.010  0.029  0.000  0.047  0.000  0.010  0.101
 
band    23 # energy   33.33598238 # occ.  0.00000000
 
ion      s     py     pz     px    dxy    dyz    dz2    dxz  x2-y2    tot
    1  0.000  0.000  0.008  0.000  0.000  0.006  0.000  0.018  0.000  0.032
    2  0.000  0.000  0.008  0.000  0.000  0.006  0.000  0.018  0.000  0.032
tot    0.000  0.000  0.017  0.000  0.000  0.012  0.000  0.036  0.000  0.065
 
band    24 # energy   33.39186290 # occ.  0.00000000
 
ion      s     py     pz     px    dxy    dyz    dz2    dxz  x2-y2    tot
    1  0.007  0.027  0.000  0.081  0.016  0.000  0.004  0.000  0.005  0.141
    2  0.007  0.027  0.000  0.081  0.016  0.000  0.004  0.000  0.005  0.141
tot    0.014  0.054  0.000  0.162  0.032  0.000  0.008  0.000  0.011  0.282
 

 k-point     3 :    0.20000000-0.00000000 0.00000000     weight = 0.00750000

band     1 # energy  -39.87480471 # occ.  2.00000000
 
ion      s     py     pz     px    dxy    dyz    dz2    dxz  x2-y2    tot
    1  0.000  0.000  0.491  0.000  0.000  0.000  0.000  0.000  0.000  0.491
    2  0.000  0.000  0.491  0.000  0.000  0.000  0.000  0.000  0.000  0.491
tot    0.000  0.000  0.983  0.000  0.000  0.000  0.000  0.000  0.000  0.983
 
band     2 # energy  -39.80759320 # occ.  2.00000000
 
ion      s     py     pz     px    dxy    dyz    dz2    dxz  x2-y2    tot
    1  0.000  0.124  0.000  0.372  0.000  0.000  0.000  0.000  0.000  0.496
    2  0.000  0.124  0.000  0.372  0.000  0.000  0.000  0.000  0.000  0.496
tot    0.000  0.248  0.000  0.743  0.000  0.000  0.000  0.000  0.000  0.991
 
band     3 # energy  -39.75145874 # occ.  2.00000000
 
ion      s     py     pz     px    dxy    dyz    dz2    dxz  x2-y2    tot
    1  0.000  0.124  0.000  0.372  0.000  0.000  0.000  0.000  0.000  0.496
    2  0.000  0.124  0.000  0.372  0.000  0.000  0.000  0.000  0.000  0.496
tot    0.000  0.248  0.000  0.744  0.000  0.000  0.000  0.000  0.000  0.993
 
band     4 # energy  -39.67152140 # occ.  2.00000000
 
ion      s     py     pz     px    dxy    dyz    dz2    dxz  x2-y2    tot
    1  0.000  0.373  0.000  0.124  0.000  0.000  0.000  0.000  0.000  0.498
    2  0.000  0.373  0.000  0.124  0.000  0.000  0.000  0.000  0.000  0.498
tot    0.000  0.746  0.000  0.249  0.000  0.000  0.000  0.000  0.000  0.995
 
band     5 # energy  -39.59755835 # occ.  2.00000000
 
ion      s     py     pz     px    dxy    dyz    dz2    dxz  x2-y2    tot
    1  0.000  0.374  0.000  0.125  0.000  0.000  0.000  0.000  0.000  0.499
    2  0.000  0.374  0.000  0.125  0.000  0.000  0.000  0.000  0.000  0.499
tot    0.000  0.748  0.000  0.249  0.000  0.000  0.000  0.000  0.000  0.997
 
band     6 # energy  -39.47058101 # occ.  2.00000000
 
ion      s     py     pz     px    dxy    dyz    dz2    dxz  x2-y2    tot
    1  0.000  0.000  0.498  0.000  0.000  0.000  0.000  0.000  0.000  0.498
    2  0.000  0.000  0.498  0.000  0.000  0.000  0.000  0.000  0.000  0.498
tot    0.000  0.000  0.996  0.000  0.000  0.000  0.000  0.000  0.000  0.996
 
band     7 # energy    3.76822998 # occ.  2.00000000
 
ion      s     py     pz     px    dxy    dyz    dz2    dxz  x2-y2    tot
    1  0.190  0.002  0.000  0.007  0.007  0.000  0.001  0.000  0.002  0.210
    2  0.190  0.002  0.000  0.007  0.007  0.000  0.001  0.000  0.002  0.210
tot    0.381  0.005  0.000  0.014  0.014  0.000  0.002  0.000  0.005  0.421
 
band     8 # energy    6.17758348 # occ.  2.00000000
 
ion      s     py     pz     px    dxy    dyz    dz2    dxz  x2-y2    tot
    1  0.053  0.002  0.000  0.005  0.043  0.000  0.224  0.000  0.014  0.340
    2  0.053  0.002  0.000  0.005  0.043  0.000  0.224  0.000  0.014  0.340
tot    0.107  0.003  0.000  0.009  0.086  0.000  0.447  0.000  0.029  0.680
 
band     9 # energy    8.17363681 # occ.  2.00000000
 
ion      s     py     pz     px    dxy    dyz    dz2    dxz  x2-y2    tot
    1  0.004  0.001  0.000  0.004  0.186  0.000  0.129  0.000  0.062  0.387
    2  0.004  0.001  0.000  0.004  0.186  0.000  0.129  0.000  0.062  0.387
tot    0.007  0.003  0.000  0.009  0.373  0.000  0.259  0.000  0.124  0.775
 
band    10 # energy    8.69564853 # occ.  2.00000000
 
ion      s     py     pz     px    dxy    dyz    dz2    dxz  x2-y2    tot
    1  0.000  0.000  0.022  0.000  0.000  0.074  0.000  0.223  0.000  0.320
    2  0.000  0.000  0.022  0.000  0.000  0.074  0.000  0.223  0.000  0.320
tot    0.000  0.000  0.044  0.000  0.000  0.149  0.000  0.446  0.000  0.639
 
band    11 # energy    8.79100617 # occ.  2.00000000
 
ion      s     py     pz     px    dxy    dyz    dz2    dxz  x2-y2    tot
    1  0.006  0.000  0.000  0.001  0.257  0.000  0.060  0.000  0.086  0.410
    2  0.006  0.000  0.000  0.001  0.257  0.000  0.060  0.000  0.086  0.410
tot    0.013  0.001  0.000  0.003  0.514  0.000  0.120  0.000  0.171  0.821
 
band    12 # energy    9.84505760 # occ.  2.00000000
 
ion      s     py     pz     px    dxy    dyz    dz2    dxz  x2-y2    tot
    1  0.004  0.001  0.000  0.002  0.110  0.000  0.270  0.000  0.037  0.424
    2  0.004  0.001  0.000  0.002  0.110  0.000  0.270  0.000  0.037  0.424
tot    0.009  0.001  0.000  0.004  0.221  0.000  0.540  0.000  0.074  0.849
 
band    13 # energy   10.33671878 # occ.  2.00000000
 
ion      s     py     pz     px    dxy    dyz    dz2    dxz  x2-y2    tot
    1  0.000  0.001  0.000  0.000  0.108  0.000  0.000  0.000  0.324  0.433
    2  0.000  0.001  0.000  0.000  0.108  0.000  0.000  0.000  0.324  0.433
tot    0.000  0.002  0.000  0.001  0.216  0.000  0.000  0.000  0.648  0.867
 
band    14 # energy   10.34599413 # occ.  2.00000000
 
ion      s     py     pz     px    dxy    dyz    dz2    dxz  x2-y2    tot
    1  0.000  0.000  0.000  0.000  0.000  0.326  0.000  0.109  0.000  0.434
    2  0.000  0.000  0.000  0.000  0.000  0.326  0.000  0.109  0.000  0.434
tot    0.000  0.000  0.000  0.000  0.000  0.651  0.000  0.217  0.000  0.868
 
band    15 # energy   10.34781427 # occ.  2.00000000
 
ion      s     py     pz     px    dxy    dyz    dz2    dxz  x2-y2    tot
    1  0.000  0.000  0.012  0.000  0.000  0.095  0.000  0.284  0.000  0.390
    2  0.000  0.000  0.012  0.000  0.000  0.095  0.000  0.284  0.000  0.390
tot    0.000  0.000  0.023  0.000  0.000  0.189  0.000  0.568  0.000  0.781
 
band    16 # energy   10.71196799 # occ.  2.00000000
 
ion      s     py     pz     px    dxy    dyz    dz2    dxz  x2-y2    tot
    1  0.000  0.001  0.000  0.000  0.110  0.000  0.000  0.000  0.331  0.443
    2  0.000  0.001  0.000  0.000  0.110  0.000  0.000  0.000  0.331  0.443
tot    0.000  0.002  0.000  0.001  0.221  0.000  0.000  0.000  0.662  0.886
 
band    17 # energy   13.08868942 # occ.  1.80614338
 
ion      s     py     pz     px    dxy    dyz    dz2    dxz  x2-y2    tot
    1  0.000  0.000  0.000  0.000  0.000  0.356  0.000  0.119  0.000  0.475
    2  0.000  0.000  0.000  0.000  0.000  0.356  0.000  0.119  0.000  0.475
tot    0.000  0.000  0.000  0.000  0.000  0.713  0.000  0.238  0.000  0.951
 
band    18 # energy   17.09272277 # occ.  0.00000000
 
ion      s     py     pz     px    dxy    dyz    dz2    dxz  x2-y2    tot
    1  0.000  0.000  0.067  0.000  0.000  0.053  0.000  0.159  0.000  0.279
    2  0.000  0.000  0.067  0.000  0.000  0.053  0.000  0.159  0.000  0.279
tot    0.000  0.000  0.134  0.000  0.000  0.106  0.000  0.319  0.000  0.559
 
band    19 # energy   18.35276359 # occ.  0.00000000
 
ion      s     py     pz     px    dxy    dyz    dz2    dxz  x2-y2    tot
    1  0.192  0.001  0.000  0.003  0.006  0.000  0.188  0.000  0.002  0.392
    2  0.192  0.001  0.000  0.003  0.006  0.000  0.188  0.000  0.002  0.392
tot    0.383  0.002  0.000  0.007  0.012  0.000  0.377  0.000  0.004  0.784
 
band    20 # energy   27.94547282 # occ.  0.00000000
 
ion      s     py     pz     px    dxy    dyz    dz2    dxz  x2-y2    tot
    1  0.024  0.016  0.000  0.048  0.058  0.000  0.025  0.000  0.019  0.190
    2  0.024  0.016  0.000  0.048  0.058  0.000  0.025  0.000  0.019  0.190
tot    0.048  0.032  0.000  0.095  0.115  0.000  0.050  0.000  0.038  0.379
 
band    21 # energy   29.98593883 # occ.  0.00000000
 
ion      s     py     pz     px    dxy    dyz    dz2    dxz  x2-y2    tot
    1  0.000  0.000  0.009  0.000  0.000  0.003  0.000  0.008  0.000  0.020
    2  0.000  0.000  0.009  0.000  0.000  0.003  0.000  0.008  0.000  0.020
tot    0.000  0.000  0.018  0.000  0.000  0.006  0.000  0.017  0.000  0.041
 
band    22 # energy   31.10752112 # occ.  0.00000000
 
ion      s     py     pz     px    dxy    dyz    dz2    dxz  x2-y2    tot
    1  0.000  0.085  0.000  0.028  0.012  0.000  0.000  0.000  0.035  0.160
    2  0.000  0.085  0.000  0.028  0.012  0.000  0.000  0.000  0.035  0.160
tot    0.000  0.170  0.000  0.057  0.024  0.000  0.000  0.000  0.071  0.321
 
band    23 # energy   31.55495313 # occ.  0.00000000
 
ion      s     py     pz     px    dxy    dyz    dz2    dxz  x2-y2    tot
    1  0.005  0.006  0.000  0.017  0.032  0.000  0.021  0.000  0.011  0.090
    2  0.005  0.006  0.000  0.017  0.032  0.000  0.021  0.000  0.011  0.090
tot    0.009  0.011  0.000  0.033  0.064  0.000  0.041  0.000  0.021  0.180
 
band    24 # energy   31.67872805 # occ.  0.00000000
 
ion      s     py     pz     px    dxy    dyz    dz2    dxz  x2-y2    tot
    1  0.000  0.000  0.004  0.000  0.000  0.016  0.000  0.048  0.000  0.068
    2  0.000  0.000  0.004  0.000  0.000  0.016  0.000  0.048  0.000  0.068
tot    0.000  0.000  0.009  0.000  0.000  0.032  0.000  0.096  0.000  0.136
 

 k-point     4 :    0.30000000-0.00000000 0.00000000     weight = 0.00750000

band     1 # energy  -39.97568000 # occ.  2.00000000
 
ion      s     py     pz     px    dxy    dyz    dz2    dxz  x2-y2    tot
    1  0.000  0.123  0.000  0.370  0.000  0.000  0.000  0.000  0.000  0.493
    2  0.000  0.123  0.000  0.370  0.000  0.000  0.000  0.000  0.000  0.493
tot    0.000  0.246  0.000  0.739  0.000  0.000  0.000  0.000  0.000  0.986
 
band     2 # energy  -39.91792210 # occ.  2.00000000
 
ion      s     py     pz     px    dxy    dyz    dz2    dxz  x2-y2    tot
    1  0.000  0.123  0.000  0.370  0.000  0.000  0.000  0.000  0.000  0.494
    2  0.000  0.123  0.000  0.370  0.000  0.000  0.000  0.000  0.000  0.494
tot    0.000  0.247  0.000  0.741  0.000  0.000  0.000  0.000  0.000  0.988
 
band     3 # energy  -39.80689343 # occ.  2.00000000
 
ion      s     py     pz     px    dxy    dyz    dz2    dxz  x2-y2    tot
    1  0.000  0.000  0.492  0.000  0.000  0.000  0.000  0.000  0.000  0.492
    2  0.000  0.000  0.492  0.000  0.000  0.000  0.000  0.000  0.000  0.492
tot    0.000  0.000  0.985  0.000  0.000  0.000  0.000  0.000  0.000  0.985
 
band     4 # energy  -39.71872742 # occ.  2.00000000
 
ion      s     py     pz     px    dxy    dyz    dz2    dxz  x2-y2    tot
    1  0.000  0.373  0.000  0.124  0.000  0.000  0.000  0.000  0.000  0.497
    2  0.000  0.373  0.000  0.124  0.000  0.000  0.000  0.000  0.000  0.497
tot    0.000  0.745  0.000  0.248  0.000  0.000  0.000  0.000  0.000  0.994
 
band     5 # energy  -39.63311277 # occ.  2.00000000
 
ion      s     py     pz     px    dxy    dyz    dz2    dxz  x2-y2    tot
    1  0.000  0.374  0.000  0.125  0.000  0.000  0.000  0.000  0.000  0.498
    2  0.000  0.374  0.000  0.125  0.000  0.000  0.000  0.000  0.000  0.498
tot    0.000  0.747  0.000  0.249  0.000  0.000  0.000  0.000  0.000  0.996
 
band     6 # energy  -39.49434496 # occ.  2.00000000
 
ion      s     py     pz     px    dxy    dyz    dz2    dxz  x2-y2    tot
    1  0.000  0.000  0.498  0.000  0.000  0.000  0.000  0.000  0.000  0.498
    2  0.000  0.000  0.498  0.000  0.000  0.000  0.000  0.000  0.000  0.498
tot    0.000  0.000  0.995  0.000  0.000  0.000  0.000  0.000  0.000  0.995
 
band     7 # energy    5.03406462 # occ.  2.00000000
 
ion      s     py     pz     px    dxy    dyz    dz2    dxz  x2-y2    tot
    1  0.147  0.003  0.000  0.010  0.055  0.000  0.007  0.000  0.018  0.239
    2  0.147  0.003  0.000  0.010  0.055  0.000  0.007  0.000  0.018  0.239
tot    0.294  0.006  0.000  0.019  0.109  0.000  0.013  0.000  0.036  0.478
 
band     8 # energy    6.26039487 # occ.  2.00000000
 
ion      s     py     pz     px    dxy    dyz    dz2    dxz  x2-y2    tot
    1  0.022  0.000  0.000  0.001  0.167  0.000  0.119  0.000  0.056  0.366
    2  0.022  0.000  0.000  0.001  0.167  0.000  0.119  0.000  0.056  0.366
tot    0.044  0.001  0.000  0.002  0.335  0.000  0.238  0.000  0.112  0.732
 
band     9 # energy    7.47926149 # occ.  2.00000000
 
ion      s     py     pz     px    dxy    dyz    dz2    dxz  x2-y2    tot
    1  0.000  0.000  0.013  0.000  0.000  0.080  0.000  0.239  0.000  0.331
    2  0.000  0.000  0.013  0.000  0.000  0.080  0.000  0.239  0.000  0.331
tot    0.000  0.000  0.026  0.000  0.000  0.159  0.000  0.477  0.000  0.662
 
band    10 # energy    8.48810186 # occ.  2.00000000
 
ion      s     py     pz     px    dxy    dyz    dz2    dxz  x2-y2    tot
    1  0.015  0.004  0.000  0.011  0.204  0.000  0.047  0.000  0.068  0.350
    2  0.015  0.004  0.000  0.011  0.204  0.000  0.047  0.000  0.068  0.350
tot    0.030  0.008  0.000  0.023  0.408  0.000  0.094  0.000  0.136  0.699
 
band    11 # energy    8.91541561 # occ.  2.00000000
 
ion      s     py     pz     px    dxy    dyz    dz2    dxz  x2-y2    tot