Pt-hcc                                  
           1
     2.670383    0.000000    0.000000
    -1.335191    2.312619    0.000000
     0.000000    0.000000    4.626376
   Pt
     2
Direct configuration=     1
   0.00000000  0.00000000  0.00000000
   0.33333333  0.66666667  0.50000000
