Pt-fcc                                  
   1.00000000000000     
     0.000000    1.899695    1.899695
     1.899695    0.000000    1.899695
     1.899695    1.899695    0.000000
   Pt
     1
Direct
  0.000000  0.000000  0.000000
 
   36   36   36
  120.04      119.92      119.19      116.88      111.88      103.39      91.419      76.834      61.196      46.280    
  33.551      23.799      17.040      12.674      9.8273      7.9746      6.8575      6.2715      6.0902      6.2715    
  6.8575      7.9746      9.8273      12.674      17.040      23.799      33.551      46.280      61.196      76.834    
  91.419      103.39      111.88      116.88      119.19      119.92      119.92      119.49      117.95      114.24    
  107.38      96.983      83.517      68.245      52.878      39.065      27.929      19.843      14.470      11.017    
  8.7310      7.2943      6.4741      6.1057      6.1057      6.4741      7.2943      8.7310      11.017      14.470    
  19.843      27.929      39.065      52.878      68.245      83.517      96.983      107.38      114.24      117.95    
  119.49      119.92      119.19      117.95      114.95      109.25      100.23      88.022      73.540      58.301    
  43.965      31.866      22.675      16.338      12.235      9.5301      7.7693      6.7075      6.1501      5.9775    
  6.1501      6.7075      7.7693      9.5301      12.235      16.338      22.675      31.866      43.965      58.301    
  73.540      88.022      100.23      109.25      114.95      117.95      119.19      119.49      116.88      114.24    
  109.25      101.29      90.272      76.800      62.128      47.803      35.225      25.274      18.144      13.420    
  10.325      8.2585      6.9603      6.2182      5.8842      5.8842      6.2182      6.9603      8.2585      10.325    
  13.420      18.144      25.274      35.225      47.803      62.128      76.800      90.272      101.29      109.25    
  114.24      116.88      117.95      117.95      111.88      107.38      100.23      90.272      77.898      64.102    
  50.241      37.670      27.367      19.715      14.495      11.058      8.7300      7.2163      6.3018      5.8203    
  5.6709      5.8203      6.3018      7.2163      8.7300      11.058      14.495      19.715      27.367      37.670    
  50.241      64.102      77.898      90.272      100.23      107.38      111.88      114.24      114.95      114.24    
  103.39      96.983      88.022      76.800      64.102      51.077      38.956      28.725      20.879      15.362    
  11.673      9.1478      7.4561      6.3910      5.7793      5.5028      5.5028      5.7793      6.3910      7.4561    
  9.1478      11.673      15.362      20.879      28.725      38.956      51.077      64.102      76.800      88.022    
  96.983      103.39      107.38      109.25      109.25      107.38      91.419      83.517      73.540      62.128    
  50.241      38.956      29.195      21.499      15.928      12.117      9.4767      7.6590      6.4750      5.7549    
  5.3728      5.2536      5.3728      5.7549      6.4750      7.6590      9.4767      12.117      15.928      21.499    
  29.195      38.956      50.241      62.128      73.540      83.517      91.419      96.983      100.23      101.29    
  100.23      96.983      76.834      68.245      58.301      47.803      37.670      28.725      21.499      16.124    
  12.351      9.6872      7.8064      6.5436      5.7415      5.2755      5.0627      5.0627      5.2755      5.7415    
  6.5436      7.8064      9.6872      12.351      16.124      21.499      28.725      37.670      47.803      58.301    
  68.245      76.834      83.517      88.022      90.272      90.272      88.022      83.517      61.196      52.878    
  43.965      35.225      27.367      20.879      15.928      12.351      9.7596      7.8839      6.5884      5.7349    
  5.2075      4.9232      4.8337      4.9232      5.2075      5.7349      6.5884      7.8839      9.7596      12.351    
  15.928      20.879      27.367      35.225      43.965      52.878      61.196      68.245      73.540      76.800    
  77.898      76.800      73.540      68.245      46.280      39.065      31.866      25.274      19.715      15.362    
  12.117      9.6872      7.8839      6.6040      5.7323      5.1671      4.8313      4.6753      4.6753      4.8313    
  5.1671      5.7323      6.6040      7.8839      9.6872      12.117      15.362      19.715      25.274      31.866    
  39.065      46.280      52.878      58.301      62.128      64.102      64.102      62.128      58.301      52.878    
  33.551      27.929      22.675      18.144      14.495      11.673      9.4767      7.8064      6.5884      5.7323    
  5.1537      4.7855      4.5820      4.5170      4.5820      4.7855      5.1537      5.7323      6.5884      7.8064    
  9.4767      11.673      14.495      18.144      22.675      27.929      33.551      39.065      43.965      47.803    
  50.241      51.077      50.241      47.803      43.965      39.065      23.799      19.843      16.338      13.420    
  11.058      9.1478      7.6590      6.5436      5.7349      5.1671      4.7855      4.5511      4.4396      4.4396    
  4.5511      4.7855      5.1671      5.7349      6.5436      7.6590      9.1478      11.058      13.420      16.338    
  19.843      23.799      27.929      31.866      35.225      37.670      38.956      38.956      37.670      35.225    
  31.866      27.929      17.040      14.470      12.235      10.325      8.7300      7.4561      6.4750      5.7415    
  5.2075      4.8313      4.5820      4.4396      4.3932      4.4396      4.5820      4.8313      5.2075      5.7415    
  6.4750      7.4561      8.7300      10.325      12.235      14.470      17.040      19.843      22.675      25.274    
  27.367      28.725      29.195      28.725      27.367      25.274      22.675      19.843      12.674      11.017    
  9.5301      8.2585      7.2163      6.3910      5.7549      5.2755      4.9232      4.6753      4.5170      4.4396    
  4.4396      4.5170      4.6753      4.9232      5.2755      5.7549      6.3910      7.2163      8.2585      9.5301    
  11.017      12.674      14.470      16.338      18.144      19.715      20.879      21.499      21.499      20.879    
  19.715      18.144      16.338      14.470      9.8273      8.7310      7.7693      6.9603      6.3018      5.7793    
  5.3728      5.0627      4.8337      4.6753      4.5820      4.5511      4.5820      4.6753      4.8337      5.0627    
  5.3728      5.7793      6.3018      6.9603      7.7693      8.7310      9.8274      11.017      12.235      13.420    
  14.495      15.362      15.928      16.124      15.928      15.362      14.495      13.420      12.235      11.017    
  7.9746      7.2943      6.7075      6.2182      5.8203      5.5028      5.2536      5.0627      4.9232      4.8313    
  4.7855      4.7855      4.8313      4.9232      5.0627      5.2536      5.5028      5.8203      6.2182      6.7075    
  7.2943      7.9746      8.7310      9.5301      10.325      11.058      11.673      12.117      12.351      12.351    
  12.117      11.673      11.058      10.325      9.5301      8.7310      6.8575      6.4741      6.1501      5.8842    
  5.6709      5.5028      5.3728      5.2755      5.2075      5.1671      5.1537      5.1671      5.2075      5.2755    
  5.3728      5.5028      5.6709      5.8842      6.1501      6.4741      6.8575      7.2943      7.7693      8.2585    
  8.7300      9.1478      9.4767      9.6872      9.7596      9.6872      9.4767      9.1478      8.7300      8.2585    
  7.7693      7.2943      6.2715      6.1057      5.9775      5.8842      5.8203      5.7793      5.7549      5.7415    
  5.7349      5.7323      5.7323      5.7349      5.7415      5.7549      5.7793      5.8203      5.8842      5.9775    
  6.1057      6.2715      6.4741      6.7075      6.9603      7.2163      7.4561      7.6590      7.8064      7.8839    
  7.8839      7.8064      7.6590      7.4561      7.2163      6.9603      6.7075      6.4741      6.0902      6.1057    
  6.1501      6.2182      6.3018      6.3910      6.4750      6.5436      6.5884      6.6040      6.5884      6.5436    
  6.4750      6.3910      6.3018      6.2182      6.1501      6.1057      6.0902      6.1057      6.1501      6.2182    
  6.3018      6.3910      6.4750      6.5436      6.5884      6.6040      6.5884      6.5436      6.4750      6.3910    
  6.3018      6.2182      6.1501      6.1057      6.2715      6.4741      6.7075      6.9603      7.2163      7.4561    
  7.6590      7.8064      7.8839      7.8839      7.8064      7.6590      7.4561      7.2163      6.9603      6.7075    
  6.4741      6.2715      6.1057      5.9775      5.8842      5.8203      5.7793      5.7549      5.7415      5.7349    
  5.7323      5.7323      5.7349      5.7415      5.7549      5.7793      5.8203      5.8842      5.9775      6.1057    
  6.8575      7.2943      7.7693      8.2585      8.7300      9.1478      9.4767      9.6872      9.7596      9.6872    
  9.4767      9.1478      8.7300      8.2585      7.7693      7.2943      6.8575      6.4741      6.1501      5.8842    
  5.6709      5.5028      5.3728      5.2755      5.2075      5.1671      5.1537      5.1671      5.2075      5.2755    
  5.3728      5.5028      5.6709      5.8842      6.1501      6.4741      7.9746      8.7310      9.5301      10.325    
  11.058      11.673      12.117      12.351      12.351      12.117      11.673      11.058      10.325      9.5301    
  8.7310      7.9746      7.2943      6.7075      6.2182      5.8203      5.5028      5.2536      5.0627      4.9232    
  4.8313      4.7855      4.7855      4.8313      4.9232      5.0627      5.2536      5.5028      5.8203      6.2182    
  6.7075      7.2943      9.8273      11.017      12.235      13.420      14.495      15.362      15.928      16.124    
  15.928      15.362      14.495      13.420      12.235      11.017      9.8274      8.7310      7.7693      6.9603    
  6.3018      5.7793      5.3728      5.0627      4.8337      4.6753      4.5820      4.5511      4.5820      4.6753    
  4.8337      5.0627      5.3728      5.7793      6.3018      6.9603      7.7693      8.7310      12.674      14.470    
  16.338      18.144      19.715      20.879      21.499      21.499      20.879      19.715      18.144      16.338    
  14.470      12.674      11.017      9.5301      8.2585      7.2163      6.3910      5.7549      5.2755      4.9232    
  4.6753      4.5170      4.4396      4.4396      4.5170      4.6753      4.9232      5.2755      5.7549      6.3910    
  7.2163      8.2585      9.5301      11.017      17.040      19.843      22.675      25.274      27.367      28.725    
  29.195      28.725      27.367      25.274      22.675      19.843      17.040      14.470      12.235      10.325    
  8.7300      7.4561      6.4750      5.7415      5.2075      4.8313      4.5820      4.4396      4.3932      4.4396    
  4.5820      4.8313      5.2075      5.7415      6.4750      7.4561      8.7300      10.325      12.235      14.470    
  23.799      27.929      31.866      35.225      37.670      38.956      38.956      37.670      35.225      31.866    
  27.929      23.799      19.843      16.338      13.420      11.058      9.1478      7.6590      6.5436      5.7349    
  5.1671      4.7855      4.5511      4.4396      4.4396      4.5511      4.7855      5.1671      5.7349      6.5436    
  7.6590      9.1478      11.058      13.420      16.338      19.843      33.551      39.065      43.965      47.803    
  50.241      51.077      50.241      47.803      43.965      39.065      33.551      27.929      22.675      18.144    
  14.495      11.673      9.4767      7.8064      6.5884      5.7323      5.1537      4.7855      4.5820      4.5170    
  4.5820      4.7855      5.1537      5.7323      6.5884      7.8064      9.4767      11.673      14.495      18.144    
  22.675      27.929      46.280      52.878      58.301      62.128      64.102      64.102      62.128      58.301    
  52.878      46.280      39.065      31.866      25.274      19.715      15.362      12.117      9.6872      7.8839    
  6.6040      5.7323      5.1671      4.8313      4.6753      4.6753      4.8313      5.1671      5.7323      6.6040    
  7.8839      9.6872      12.117      15.362      19.715      25.274      31.866      39.065      61.196      68.245    
  73.540      76.800      77.898      76.800      73.540      68.245      61.196      52.878      43.965      35.225    
  27.367      20.879      15.928      12.351      9.7596      7.8839      6.5884      5.7349      5.2075      4.9232    
  4.8337      4.9232      5.2075      5.7349      6.5884      7.8839      9.7596      12.351      15.928      20.879    
  27.367      35.225      43.965      52.878      76.834      83.517      88.022      90.272      90.272      88.022    
  83.517      76.834      68.245      58.301      47.803      37.670      28.725      21.499      16.124      12.351    
  9.6872      7.8064      6.5436      5.7415      5.2755      5.0627      5.0627      5.2755      5.7415      6.5436    
  7.8064      9.6872      12.351      16.124      21.499      28.725      37.670      47.803      58.301      68.245    
  91.419      96.983      100.23      101.29      100.23      96.983      91.419      83.517      73.540      62.128    
  50.241      38.956      29.195      21.499      15.928      12.117      9.4767      7.6590      6.4750      5.7549    
  5.3728      5.2536      5.3728      5.7549      6.4750      7.6590      9.4767      12.117      15.928      21.499    
  29.195      38.956      50.241      62.128      73.540      83.517      103.39      107.38      109.25      109.25    
  107.38      103.39      96.983      88.022      76.800      64.102      51.077      38.956      28.725      20.879    
  15.362      11.673      9.1478      7.4561      6.3910      5.7793      5.5028      5.5028      5.7793      6.3910    
  7.4561      9.1478      11.673      15.362      20.879      28.725      38.956      51.077      64.102      76.800    
  88.022      96.983      111.88      114.24      114.95      114.24      111.88      107.38      100.23      90.272    
  77.898      64.102      50.241      37.670      27.367      19.715      14.495      11.058      8.7300      7.2163    
  6.3018      5.8203      5.6709      5.8203      6.3018      7.2163      8.7300      11.058      14.495      19.715    
  27.367      37.670      50.241      64.102      77.898      90.272      100.23      107.38      116.88      117.95    
  117.95      116.88      114.24      109.25      101.29      90.272      76.800      62.128      47.803      35.225    
  25.274      18.144      13.420      10.325      8.2585      6.9603      6.2182      5.8842      5.8842      6.2182    
  6.9603      8.2585      10.325      13.420      18.144      25.274      35.225      47.803      62.128      76.800    
  90.272      101.29      109.25      114.24      119.19      119.49      119.19      117.95      114.95      109.25    
  100.23      88.022      73.540      58.301      43.965      31.866      22.675      16.338      12.235      9.5301    
  7.7693      6.7075      6.1501      5.9775      6.1501      6.7075      7.7693      9.5301      12.235      16.338    
  22.675      31.866      43.965      58.301      73.540      88.022      100.23      109.25      114.95      117.95    
  119.92      119.92      119.49      117.95      114.24      107.38      96.983      83.517      68.245      52.878    
  39.065      27.929      19.843      14.470      11.017      8.7310      7.2943      6.4741      6.1057      6.1057    
  6.4741      7.2943      8.7310      11.017      14.470      19.843      27.929      39.065      52.878      68.245    
  83.517      96.983      107.38      114.24      117.95      119.49      119.92      119.49      117.95      114.24    
  107.38      96.983      83.517      68.245      52.878      39.065      27.929      19.843      14.470      11.017    
  8.7310      7.2943      6.4741      6.1057      6.1057      6.4741      7.2943      8.7310      11.017      14.470    
  19.843      27.929      39.065      52.878      68.245      83.517      96.983      107.38      114.24      117.95    
  119.49      119.92      119.49      118.36      115.51      109.96      101.07      88.923      74.423      59.089    
  44.608      32.344      23.000      16.544      12.367      9.6223      7.8355      6.7579      6.1923      6.0172    
  6.1923      6.7579      7.8355      9.6223      12.367      16.544      23.000      32.344      44.608      59.089    
  74.423      88.923      101.07      109.96      115.51      118.36      119.49      119.76      117.95      115.51    
  110.77      103.02      92.115      78.623      63.790      49.195      36.292      26.022      18.629      13.726    
  10.533      8.4053      7.0684      6.3045      5.9608      5.9608      6.3045      7.0684      8.4053      10.533    
  13.726      18.629      26.022      36.292      49.195      63.790      78.623      92.115      103.02      110.77    
  115.51      117.95      118.90      118.90      114.24      109.96      103.02      93.165      80.734      66.700    
  52.449      39.399      28.611      20.541      15.016      11.402      8.9706      7.3891      6.4342      5.9318    
  5.7761      5.9318      6.4342      7.3891      8.9706      11.402      15.016      20.541      28.611      39.399    
  52.449      66.700      80.734      93.165      103.02      109.96      114.24      116.42      117.08      116.42    
  107.38      101.07      92.115      80.734      67.682      54.132      41.380      30.501      22.083      16.130    
  12.167      9.4916      7.6985      6.5705      5.9237      5.6317      5.6317      5.9237      6.5705      7.6985    
  9.4916      12.167      16.130      22.083      30.501      41.380      54.132      67.682      80.734      92.115    
  101.07      107.38      111.23      113.02      113.02      111.23      96.983      88.923      78.623      66.700    
  54.132      42.059      31.497      23.084      16.952      12.772      9.9273      7.9727      6.7008      5.9292    
  5.5209      5.3938      5.5209      5.9292      6.7008      7.9727      9.9273      12.772      16.952      23.084    
  31.497      42.059      54.132      66.700      78.623      88.923      96.983      102.59      105.84      106.90    
  105.84      102.59      83.517      74.423      63.790      52.449      41.380      31.497      23.431      17.389    
  13.162      10.241      8.1885      6.8124      5.9416      5.4377      5.2085      5.2085      5.4377      5.9416    
  6.8124      8.1885      10.241      13.162      17.389      23.431      31.497      41.380      52.449      63.790    
  74.423      83.517      90.534      95.231      97.566      97.566      95.231      90.534      68.245      59.089    
  49.195      39.399      30.501      23.084      17.389      13.297      10.405      8.3265      6.8940      5.9548    
  5.3779      5.0688      4.9718      5.0688      5.3779      5.9548      6.8940      8.3265      10.405      13.297    
  17.389      23.084      30.501      39.399      49.195      59.089      68.245      75.949      81.704      85.234    
  86.420      85.234      81.704      75.949      52.878      44.608      36.292      28.611      22.083      16.952    
  13.162      10.405      8.3740      6.9370      5.9646      5.3391      4.9705      4.8004      4.8004      4.9705    
  5.3391      5.9646      6.9370      8.3740      10.405      13.162      16.952      22.083      28.611      36.292    
  44.608      52.878      60.393      66.537      70.859      73.083      73.083      70.859      66.537      60.393    
  39.065      32.344      26.022      20.541      16.130      12.772      10.241      8.3265      6.9370      5.9682    
  5.3199      4.9119      4.6883      4.6172      4.6883      4.9119      5.3199      5.9682      6.9370      8.3265    
  10.241      12.772      16.130      20.541      26.022      32.344      39.065      45.618      51.414      55.938    
  58.805      59.786      58.805      55.938      51.414      45.618      27.929      23.000      18.629      15.016    
  12.167      9.9273      8.1885      6.8940      5.9646      5.3199      4.8923      4.6327      4.5102      4.5102    
  4.6327      4.8923      5.3199      5.9646      6.8940      8.1885      9.9273      12.167      15.016      18.629    
  23.000      27.929      33.054      37.921      42.060      45.066      46.645      46.645      45.066      42.060    
  37.921      33.054      19.843      16.544      13.726      11.402      9.4916      7.9727      6.8124      5.9548    
  5.3391      4.9119      4.6327      4.4750      4.4239      4.4750      4.6327      4.9119      5.3391      5.9548    
  6.8124      7.9727      9.4916      11.402      13.726      16.544      19.843      23.460      27.115      30.464    
  33.156      34.901      35.504      34.901      33.156      30.464      27.115      23.460      14.470      12.367    
  10.533      8.9706      7.6985      6.7008      5.9416      5.3779      4.9705      4.6883      4.5102      4.4239    
  4.4239      4.5102      4.6883      4.9705      5.3779      5.9416      6.7008      7.6985      8.9706      10.533    
  12.367      14.470      16.824      19.310      21.730      23.840      25.404      26.236      26.236      25.404    
  23.840      21.730      19.310      16.824      11.017      9.6223      8.4053      7.3891      6.5705      5.9292    
  5.4377      5.0688      4.8004      4.6172      4.5102      4.4750      4.5102      4.6172      4.8004      5.0688    
  5.4377      5.9292      6.5705      7.3891      8.4053      9.6223      11.017      12.537      14.136      15.740    
  17.220      18.426      19.215      19.490      19.215      18.426      17.220      15.740      14.136      12.537    
  8.7310      7.8355      7.0684      6.4342      5.9237      5.5209      5.2085      4.9718      4.8004      4.6883    
  4.6327      4.6327      4.6883      4.8004      4.9718      5.2085      5.5209      5.9237      6.4342      7.0684    
  7.8355      8.7310      9.7316      10.793      11.850      12.837      13.681      14.304      14.636      14.636    
  14.304      13.681      12.837      11.850      10.793      9.7316      7.2943      6.7579      6.3045      5.9318    
  5.6317      5.3938      5.2085      5.0688      4.9705      4.9119      4.8923      4.9119      4.9705      5.0688    
  5.2085      5.3938      5.6317      5.9318      6.3045      6.7579      7.2943      7.9060      8.5727      9.2604    
  9.9245      10.514      10.978      11.276      11.378      11.276      10.978      10.514      9.9245      9.2604    
  8.5726      7.9060      6.4741      6.1923      5.9608      5.7761      5.6317      5.5209      5.4377      5.3779    
  5.3391      5.3199      5.3199      5.3391      5.3779      5.4377      5.5209      5.6317      5.7761      5.9608    
  6.1923      6.4741      6.8053      7.1779      7.5760      7.9760      8.3492      8.6645      8.8933      9.0137    
  9.0137      8.8933      8.6645      8.3492      7.9760      7.5759      7.1779      6.8053      6.1057      6.0172    
  5.9608      5.9318      5.9237      5.9292      5.9416      5.9548      5.9646      5.9682      5.9646      5.9548    
  5.9416      5.9292      5.9237      5.9318      5.9608      6.0172      6.1057      6.2279      6.3815      6.5600    
  6.7519      6.9425      7.1150      7.2528      7.3418      7.3726      7.3418      7.2528      7.1150      6.9425    
  6.7519      6.5600      6.3816      6.2279      6.1057      6.1923      6.3045      6.4342      6.5705      6.7008    
  6.8124      6.8940      6.9370      6.9370      6.8940      6.8124      6.7008      6.5705      6.4342      6.3045    
  6.1923      6.1057      6.0492      6.0236      6.0262      6.0513      6.0914      6.1376      6.1815      6.2154    
  6.2339      6.2339      6.2154      6.1815      6.1376      6.0914      6.0514      6.0262      6.0236      6.0492    
  6.4741      6.7579      7.0684      7.3891      7.6985      7.9727      8.1885      8.3265      8.3740      8.3265    
  8.1885      7.9727      7.6985      7.3891      7.0684      6.7579      6.4741      6.2279      6.0236      5.8609    
  5.7357      5.6423      5.5745      5.5270      5.4957      5.4780      5.4722      5.4780      5.4957      5.5270    
  5.5745      5.6423      5.7357      5.8609      6.0236      6.2279      7.2943      7.8355      8.4053      8.9706    
  9.4916      9.9273      10.241      10.405      10.405      10.241      9.9273      9.4916      8.9706      8.4053    
  7.8355      7.2943      6.8053      6.3815      6.0262      5.7357      5.5028      5.3192      5.1781      5.0748    
  5.0067      4.9728      4.9728      5.0067      5.0748      5.1781      5.3192      5.5028      5.7357      6.0262    
  6.3816      6.8053      8.7310      9.6223      10.533      11.402      12.167      12.772      13.162      13.297    
  13.162      12.772      12.167      11.402      10.533      9.6223      8.7310      7.9060      7.1779      6.5600    
  6.0513      5.6423      5.3192      5.0690      4.8816      4.7506      4.6728      4.6469      4.6728      4.7506    
  4.8816      5.0690      5.3192      5.6423      6.0513      6.5600      7.1779      7.9060      11.017      12.367    
  13.726      15.016      16.130      16.952      17.389      17.389      16.952      16.130      15.016      13.726    
  12.367      11.017      9.7316      8.5727      7.5760      6.7519      6.0914      5.5745      5.1781      4.8816    
  4.6696      4.5324      4.4648      4.4648      4.5324      4.6696      4.8816      5.1781      5.5745      6.0914    
  6.7519      7.5759      8.5726      9.7316      14.470      16.544      18.629      20.541      22.083      23.084    
  23.431      23.084      22.083      20.541      18.629      16.544      14.470      12.537      10.793      9.2604    
  7.9760      6.9425      6.1376      5.5270      5.0748      4.7506      4.5324      4.4062      4.3648      4.4062    
  4.5324      4.7506      5.0748      5.5270      6.1376      6.9425      7.9760      9.2604      10.793      12.537    
  19.843      23.000      26.022      28.611      30.501      31.497      31.497      30.501      28.611      26.022    
  23.000      19.843      16.824      14.136      11.850      9.9245      8.3492      7.1150      6.1815      5.4957    
  5.0067      4.6728      4.4648      4.3648      4.3648      4.4648      4.6728      5.0067      5.4957      6.1815    
  7.1150      8.3492      9.9245      11.850      14.136      16.824      27.929      32.344      36.292      39.399    
  41.380      42.059      41.380      39.399      36.292      32.344      27.929      23.460      19.310      15.740    
  12.837      10.514      8.6645      7.2528      6.2154      5.4780      4.9728      4.6469      4.4648      4.4062    
  4.4648      4.6469      4.9728      5.4780      6.2154      7.2528      8.6645      10.514      12.837      15.740    
  19.310      23.460      39.065      44.608      49.195      52.449      54.132      54.132      52.449      49.195    
  44.608      39.065      33.054      27.115      21.730      17.220      13.681      10.978      8.8933      7.3418    
  6.2339      5.4722      4.9728      4.6728      4.5324      4.5324      4.6728      4.9728      5.4722      6.2339    
  7.3418      8.8933      10.978      13.681      17.220      21.730      27.115      33.054      52.878      59.089    
  63.790      66.700      67.682      66.700      63.790      59.089      52.878      45.618      37.921      30.464    
  23.840      18.426      14.304      11.276      9.0137      7.3726      6.2339      5.4780      5.0067      4.7506    
  4.6696      4.7506      5.0067      5.4780      6.2339      7.3726      9.0137      11.276      14.304      18.426    
  23.840      30.464      37.921      45.618      68.245      74.423      78.623      80.734      80.734      78.623    
  74.423      68.245      60.393      51.414      42.060      33.156      25.404      19.215      14.636      11.378    
  9.0137      7.3418      6.2154      5.4957      5.0748      4.8816      4.8816      5.0748      5.4957      6.2154    
  7.3418      9.0137      11.378      14.636      19.215      25.404      33.156      42.060      51.414      60.393    
  83.517      88.923      92.115      93.165      92.115      88.923      83.517      75.949      66.537      55.938    
  45.066      34.901      26.236      19.490      14.636      11.276      8.8933      7.2528      6.1815      5.5270    
  5.1781      5.0690      5.1781      5.5270      6.1815      7.2528      8.8933      11.276      14.636      19.490    
  26.236      34.901      45.066      55.938      66.537      75.949      96.983      101.07      103.02      103.02    
  101.07      96.983      90.534      81.704      70.859      58.805      46.645      35.504      26.236      19.215    
  14.304      10.978      8.6645      7.1150      6.1376      5.5745      5.3192      5.3192      5.5745      6.1376    
  7.1150      8.6645      10.978      14.304      19.215      26.236      35.504      46.645      58.805      70.859    
  81.704      90.534      107.38      109.96      110.77      109.96      107.38      102.59      95.231      85.234    
  73.083      59.786      46.645      34.901      25.404      18.426      13.681      10.514      8.3492      6.9425    
  6.0914      5.6423      5.5028      5.6423      6.0914      6.9425      8.3492      10.514      13.681      18.426    
  25.404      34.901      46.645      59.786      73.083      85.234      95.231      102.59      114.24      115.51    