Pt-fcc                                  
   1.00000000000000     
     0.000000    1.899695    1.899695
     1.899695    0.000000    1.899695
     1.899695    1.899695    0.000000
   Pt
     1
Direct
  0.000000  0.000000  0.000000
 
   36   36   36
 0.12004113074E+03 0.11992133899E+03 0.11918865345E+03 0.11688282237E+03 0.11187621071E+03
 0.10339279427E+03 0.91419161180E+02 0.76834062428E+02 0.61196428903E+02 0.46279833654E+02
 0.33550700629E+02 0.23798863345E+02 0.17039671126E+02 0.12674065589E+02 0.98273483704E+01
 0.79746307370E+01 0.68575480936E+01 0.62715362496E+01 0.60902491562E+01 0.62715362496E+01
 0.68575480936E+01 0.79746307370E+01 0.98273483704E+01 0.12674065589E+02 0.17039671126E+02
 0.23798863345E+02 0.33550700629E+02 0.46279833654E+02 0.61196428903E+02 0.76834062428E+02
 0.91419161180E+02 0.10339279427E+03 0.11187621071E+03 0.11688282237E+03 0.11918865345E+03
 0.11992133899E+03 0.11992133899E+03 0.11949230265E+03 0.11795242240E+03 0.11423601090E+03
 0.10737624133E+03 0.96982860404E+02 0.83517448678E+02 0.68245122410E+02 0.52878480436E+02
 0.39064680426E+02 0.27928762413E+02 0.19842651166E+02 0.14470082491E+02 0.11016711935E+02
 0.87309564915E+01 0.72942727922E+01 0.64741390300E+01 0.61056586946E+01 0.61056592144E+01
 0.64741402587E+01 0.72942739530E+01 0.87309567997E+01 0.11016711105E+02 0.14470080927E+02
 0.19842649798E+02 0.27928762122E+02 0.39064681445E+02 0.52878481928E+02 0.68245122626E+02
 0.83517445552E+02 0.96982852508E+02 0.10737622872E+03 0.11423599536E+03 0.11795240725E+03
 0.11949229160E+03 0.11992133494E+03 0.11918865345E+03 0.11795242240E+03 0.11495466065E+03
 0.10924700749E+03 0.10023137023E+03 0.88021676205E+02 0.73540275212E+02 0.58300596340E+02
 0.43965210315E+02 0.31865715313E+02 0.22675379386E+02 0.16338276548E+02 0.12235255808E+02
 0.95300715680E+01 0.77693413504E+01 0.67075014203E+01 0.61500569569E+01 0.59775070486E+01
 0.61500586286E+01 0.67075037131E+01 0.77693427779E+01 0.95300710969E+01 0.12235253533E+02
 0.16338273726E+02 0.22675377789E+02 0.31865716122E+02 0.43965213171E+02 0.58300599028E+02
 0.73540274329E+02 0.88021668515E+02 0.10023135429E+03 0.10924698471E+03 0.11495463531E+03
 0.11795240051E+03 0.11918864075E+03 0.11949229160E+03 0.11688282237E+03 0.11423601090E+03
 0.10924700749E+03 0.10129251657E+03 0.90271519332E+02 0.76800275912E+02 0.62128275544E+02
 0.47803233840E+02 0.35225293988E+02 0.25274002249E+02 0.18144155037E+02 0.13420093726E+02
 0.10324697372E+02 0.82585171728E+01 0.69602885527E+01 0.62181598377E+01 0.58841795174E+01
 0.58841806092E+01 0.62181624385E+01 0.69602910237E+01 0.82585178697E+01 0.10324695646E+02
 0.13420090414E+02 0.18144152110E+02 0.25274001745E+02 0.35225296715E+02 0.47803238559E+02
 0.62128279057E+02 0.76800274231E+02 0.90271509425E+02 0.10129249800E+03 0.10924698311E+03
 0.11423598630E+03 0.11688280411E+03 0.11795240051E+03 0.11795240725E+03 0.11187621071E+03
 0.10737624133E+03 0.10023137023E+03 0.90271519332E+02 0.77898087825E+02 0.64101865073E+02
 0.50241441053E+02 0.37670214404E+02 0.27367074252E+02 0.19715233196E+02 0.14494977629E+02
 0.11058321107E+02 0.87299612375E+01 0.72163147707E+01 0.63018329958E+01 0.58202785667E+01
 0.56708907035E+01 0.58202804961E+01 0.63018356855E+01 0.72163165431E+01 0.87299608783E+01
 0.11058318625E+02 0.14494974390E+02 0.19715231287E+02 0.27367075367E+02 0.37670218782E+02
 0.50241447029E+02 0.64101869554E+02 0.77898087500E+02 0.90271512243E+02 0.10023135683E+03
 0.10737622464E+03 0.11187619548E+03 0.11423598630E+03 0.11495463531E+03 0.11423599536E+03
 0.10339279427E+03 0.96982860404E+02 0.88021676205E+02 0.76800275912E+02 0.64101865073E+02
 0.51076567176E+02 0.38956099992E+02 0.28724663563E+02 0.20879032534E+02 0.15362265070E+02
 0.11672653953E+02 0.91477617366E+01 0.74560568342E+01 0.63910363152E+01 0.57793204523E+01
 0.55027738338E+01 0.55027746410E+01 0.57793224138E+01 0.63910383129E+01 0.74560576780E+01
 0.91477608525E+01 0.11672651739E+02 0.15362262817E+02 0.20879031828E+02 0.28724665538E+02
 0.38956104694E+02 0.51076573434E+02 0.64101870930E+02 0.76800279401E+02 0.88021676259E+02
 0.96982857316E+02 0.10339278961E+03 0.10737622464E+03 0.10924698311E+03 0.10924698471E+03
 0.10737622872E+03 0.91419161180E+02 0.83517448678E+02 0.73540275212E+02 0.62128275544E+02
 0.50241441053E+02 0.38956099992E+02 0.29194822138E+02 0.21498574737E+02 0.15927817010E+02
 0.12117085346E+02 0.94766873783E+01 0.76589939894E+01 0.64750114516E+01 0.57549066649E+01
 0.53727713930E+01 0.52536207976E+01 0.53727722064E+01 0.57549079099E+01 0.64750125353E+01
 0.76589943678E+01 0.94766868256E+01 0.12117084080E+02 0.15927815678E+02 0.21498574193E+02
 0.29194823194E+02 0.38956103148E+02 0.50241446309E+02 0.62128282467E+02 0.73540282974E+02
 0.83517456308E+02 0.91419167763E+02 0.96982857316E+02 0.10023135683E+03 0.10129249800E+03
 0.10023135429E+03 0.96982852508E+02 0.76834062428E+02 0.68245122410E+02 0.58300596340E+02
 0.47803233840E+02 0.37670214404E+02 0.28724663563E+02 0.21498574737E+02 0.16124427696E+02
 0.12351251807E+02 0.96871840481E+01 0.78063800730E+01 0.65435785160E+01 0.57415172146E+01
 0.52754679809E+01 0.50627167916E+01 0.50627167934E+01 0.52754680577E+01 0.57415174812E+01
 0.65435790249E+01 0.78063806423E+01 0.96871843074E+01 0.12351251323E+02 0.16124426297E+02
 0.21498572740E+02 0.28724661871E+02 0.37670214337E+02 0.47803236635E+02 0.58300602691E+02
 0.68245131983E+02 0.76834073741E+02 0.83517456308E+02 0.88021676259E+02 0.90271512243E+02
 0.90271509425E+02 0.88021668515E+02 0.83517445552E+02 0.61196428903E+02 0.52878480436E+02
 0.43965210315E+02 0.35225293988E+02 0.27367074252E+02 0.20879032534E+02 0.15927817010E+02
 0.12351251807E+02 0.97596373427E+01 0.78839313286E+01 0.65883865557E+01 0.57349229704E+01
 0.52074671591E+01 0.49231805809E+01 0.48336810824E+01 0.49231798726E+01 0.52074662488E+01
 0.57349225391E+01 0.65883870084E+01 0.78839324330E+01 0.97596382408E+01 0.12351251378E+02
 0.15927814484E+02 0.20879028046E+02 0.27367068977E+02 0.35225289921E+02 0.43965209389E+02
 0.52878483767E+02 0.61196436173E+02 0.68245131983E+02 0.73540282974E+02 0.76800279401E+02
 0.77898087500E+02 0.76800274231E+02 0.73540274329E+02 0.68245122626E+02 0.46279833654E+02
 0.39064680426E+02 0.31865715313E+02 0.25274002249E+02 0.19715233196E+02 0.15362265070E+02
 0.12117085346E+02 0.96871840481E+01 0.78839313286E+01 0.66039583276E+01 0.57323191108E+01
 0.51670732287E+01 0.48312823386E+01 0.46753480555E+01 0.46753474091E+01 0.48312807700E+01
 0.51670716888E+01 0.57323185330E+01 0.66039590996E+01 0.78839329211E+01 0.96871851955E+01
 0.12117084566E+02 0.15362261385E+02 0.19715226741E+02 0.25273994253E+02 0.31865707822E+02
 0.39064675415E+02 0.46279832185E+02 0.52878483767E+02 0.58300602691E+02 0.62128282467E+02
 0.64101870930E+02 0.64101869554E+02 0.62128279057E+02 0.58300599028E+02 0.52878481928E+02
 0.33550700629E+02 0.27928762413E+02 0.22675379386E+02 0.18144155037E+02 0.14494977629E+02
 0.11672653953E+02 0.94766873783E+01 0.78063800730E+01 0.65883865557E+01 0.57323191108E+01
 0.51536541348E+01 0.47855247908E+01 0.45819984645E+01 0.45169544995E+01 0.45819971682E+01
 0.47855228886E+01 0.51536526594E+01 0.57323188963E+01 0.65883877635E+01 0.78063820350E+01
 0.94766887760E+01 0.11672653414E+02 0.14494974178E+02 0.18144148694E+02 0.22675370997E+02
 0.27928753447E+02 0.33550692621E+02 0.39064675415E+02 0.43965209389E+02 0.47803236635E+02
 0.50241446309E+02 0.51076573434E+02 0.50241447029E+02 0.47803238559E+02 0.43965213171E+02
 0.39064681445E+02 0.23798863345E+02 0.19842651166E+02 0.16338276548E+02 0.13420093726E+02
 0.11058321107E+02 0.91477617366E+01 0.76589939894E+01 0.65435785160E+01 0.57349229704E+01
 0.51670732287E+01 0.47855247908E+01 0.45511036998E+01 0.44395616745E+01 0.44395611599E+01
 0.45511024090E+01 0.47855233629E+01 0.51670724253E+01 0.57349233495E+01 0.65435801571E+01
 0.76589964436E+01 0.91477640566E+01 0.11058322261E+02 0.13420092746E+02 0.16338272980E+02
 0.19842645148E+02 0.23798855466E+02 0.27928753447E+02 0.31865707822E+02 0.35225289921E+02
 0.37670214337E+02 0.38956103148E+02 0.38956104694E+02 0.37670218782E+02 0.35225296715E+02
 0.31865716122E+02 0.27928762122E+02 0.17039671126E+02 0.14470082491E+02 0.12235255808E+02
 0.10324697372E+02 0.87299612375E+01 0.74560568342E+01 0.64750114516E+01 0.57415172146E+01
 0.52074671591E+01 0.48312823386E+01 0.45819984645E+01 0.44395616745E+01 0.43931945575E+01
 0.44395613449E+01 0.45819979298E+01 0.48312818610E+01 0.52074671030E+01 0.57415180057E+01
 0.64750133880E+01 0.74560600075E+01 0.87299652611E+01 0.10324701496E+02 0.12235258964E+02
 0.14470083508E+02 0.17039669350E+02 0.19842645148E+02 0.22675370997E+02 0.25273994253E+02
 0.27367068977E+02 0.28724661871E+02 0.29194823194E+02 0.28724665538E+02 0.27367075367E+02
 0.25274001745E+02 0.22675377789E+02 0.19842649798E+02 0.12674065589E+02 0.11016711935E+02
 0.95300715680E+01 0.82585171728E+01 0.72163147707E+01 0.63910363152E+01 0.57549066649E+01
 0.52754679809E+01 0.49231805809E+01 0.46753480555E+01 0.45169544995E+01 0.44395611599E+01
 0.44395613449E+01 0.45169549273E+01 0.46753484530E+01 0.49231807689E+01 0.52754680995E+01
 0.57549072712E+01 0.63910381653E+01 0.72163185223E+01 0.82585229315E+01 0.95300786382E+01
 0.11016719059E+02 0.12674071108E+02 0.14470083508E+02 0.16338272980E+02 0.18144148694E+02
 0.19715226741E+02 0.20879028046E+02 0.21498572740E+02 0.21498574193E+02 0.20879031828E+02
 0.19715231287E+02 0.18144152110E+02 0.16338273726E+02 0.14470080927E+02 0.98273483704E+01
 0.87309564915E+01 0.77693413504E+01 0.69602885527E+01 0.63018329958E+01 0.57793204523E+01
 0.53727713930E+01 0.50627167916E+01 0.48336810824E+01 0.46753474091E+01 0.45819971682E+01
 0.45511024090E+01 0.45819979298E+01 0.46753484530E+01 0.48336817352E+01 0.50627166467E+01
 0.53727706290E+01 0.57793199351E+01 0.63018339147E+01 0.69602919439E+01 0.77693475631E+01
 0.87309648402E+01 0.98273573828E+01 0.11016719059E+02 0.12235258964E+02 0.13420092746E+02
 0.14494974178E+02 0.15362261385E+02 0.15927814484E+02 0.16124426297E+02 0.15927815678E+02
 0.15362262817E+02 0.14494974390E+02 0.13420090414E+02 0.12235253533E+02 0.11016711105E+02
 0.79746307370E+01 0.72942727922E+01 0.67075014203E+01 0.62181598377E+01 0.58202785667E+01
 0.55027738338E+01 0.52536207976E+01 0.50627167934E+01 0.49231798726E+01 0.48312807700E+01
 0.47855228886E+01 0.47855233629E+01 0.48312818610E+01 0.49231807689E+01 0.50627166467E+01
 0.52536192358E+01 0.55027712233E+01 0.58202760154E+01 0.62181587494E+01 0.67075029231E+01
 0.72942773068E+01 0.79746376944E+01 0.87309648402E+01 0.95300786382E+01 0.10324701496E+02
 0.11058322261E+02 0.11672653414E+02 0.12117084566E+02 0.12351251378E+02 0.12351251323E+02
 0.12117084080E+02 0.11672651739E+02 0.11058318625E+02 0.10324695646E+02 0.95300710969E+01
 0.87309567997E+01 0.68575480936E+01 0.64741390300E+01 0.61500569569E+01 0.58841795174E+01
 0.56708907035E+01 0.55027746410E+01 0.53727722064E+01 0.52754680577E+01 0.52074662488E+01
 0.51670716888E+01 0.51536526594E+01 0.51670724253E+01 0.52074671030E+01 0.52754680995E+01
 0.53727706290E+01 0.55027712233E+01 0.56708859461E+01 0.58841745505E+01 0.61500531392E+01
 0.64741374104E+01 0.68575491083E+01 0.72942773068E+01 0.77693475631E+01 0.82585229315E+01
 0.87299652611E+01 0.91477640566E+01 0.94766887760E+01 0.96871851955E+01 0.97596382408E+01
 0.96871843074E+01 0.94766868256E+01 0.91477608525E+01 0.87299608783E+01 0.82585178697E+01
 0.77693427779E+01 0.72942739530E+01 0.62715362496E+01 0.61056586946E+01 0.59775070486E+01
 0.58841806092E+01 0.58202804961E+01 0.57793224138E+01 0.57549079099E+01 0.57415174812E+01
 0.57349225391E+01 0.57323185330E+01 0.57323188963E+01 0.57349233495E+01 0.57415180057E+01
 0.57549072712E+01 0.57793199351E+01 0.58202760154E+01 0.58841745505E+01 0.59775003124E+01
 0.61056524206E+01 0.62715314120E+01 0.64741374104E+01 0.67075029231E+01 0.69602919439E+01
 0.72163185223E+01 0.74560600075E+01 0.76589964436E+01 0.78063820350E+01 0.78839329211E+01
 0.78839324330E+01 0.78063806423E+01 0.76589943678E+01 0.74560576780E+01 0.72163165431E+01
 0.69602910237E+01 0.67075037131E+01 0.64741402587E+01 0.60902491562E+01 0.61056592144E+01
 0.61500586286E+01 0.62181624385E+01 0.63018356855E+01 0.63910383129E+01 0.64750125353E+01
 0.65435790249E+01 0.65883870084E+01 0.66039590996E+01 0.65883877635E+01 0.65435801571E+01
 0.64750133880E+01 0.63910381653E+01 0.63018339147E+01 0.62181587494E+01 0.61500531392E+01
 0.61056524206E+01 0.60902418825E+01 0.61056524206E+01 0.61500531392E+01 0.62181587494E+01
 0.63018339147E+01 0.63910381653E+01 0.64750133880E+01 0.65435801571E+01 0.65883877635E+01
 0.66039590996E+01 0.65883870084E+01 0.65435790249E+01 0.64750125353E+01 0.63910383129E+01
 0.63018356855E+01 0.62181624385E+01 0.61500586286E+01 0.61056592144E+01 0.62715362496E+01
 0.64741402587E+01 0.67075037131E+01 0.69602910237E+01 0.72163165431E+01 0.74560576780E+01
 0.76589943678E+01 0.78063806423E+01 0.78839324330E+01 0.78839329211E+01 0.78063820350E+01
 0.76589964436E+01 0.74560600075E+01 0.72163185223E+01 0.69602919439E+01 0.67075029231E+01
 0.64741374104E+01 0.62715314120E+01 0.61056524206E+01 0.59775003124E+01 0.58841745505E+01
 0.58202760154E+01 0.57793199351E+01 0.57549072712E+01 0.57415180057E+01 0.57349233495E+01
 0.57323188963E+01 0.57323185330E+01 0.57349225391E+01 0.57415174812E+01 0.57549079099E+01
 0.57793224138E+01 0.58202804961E+01 0.58841806092E+01 0.59775070486E+01 0.61056586946E+01
 0.68575480936E+01 0.72942739530E+01 0.77693427779E+01 0.82585178697E+01 0.87299608783E+01
 0.91477608525E+01 0.94766868256E+01 0.96871843074E+01 0.97596382408E+01 0.96871851955E+01
 0.94766887760E+01 0.91477640566E+01 0.87299652611E+01 0.82585229315E+01 0.77693475631E+01
 0.72942773068E+01 0.68575491083E+01 0.64741374104E+01 0.61500531392E+01 0.58841745505E+01
 0.56708859461E+01 0.55027712233E+01 0.53727706290E+01 0.52754680995E+01 0.52074671030E+01
 0.51670724253E+01 0.51536526594E+01 0.51670716888E+01 0.52074662488E+01 0.52754680577E+01
 0.53727722064E+01 0.55027746410E+01 0.56708907035E+01 0.58841795174E+01 0.61500569569E+01
 0.64741390300E+01 0.79746307370E+01 0.87309567997E+01 0.95300710969E+01 0.10324695646E+02
 0.11058318625E+02 0.11672651739E+02 0.12117084080E+02 0.12351251323E+02 0.12351251378E+02
 0.12117084566E+02 0.11672653414E+02 0.11058322261E+02 0.10324701496E+02 0.95300786382E+01
 0.87309648402E+01 0.79746376944E+01 0.72942773068E+01 0.67075029231E+01 0.62181587494E+01
 0.58202760154E+01 0.55027712233E+01 0.52536192358E+01 0.50627166467E+01 0.49231807689E+01
 0.48312818610E+01 0.47855233629E+01 0.47855228886E+01 0.48312807700E+01 0.49231798726E+01
 0.50627167934E+01 0.52536207976E+01 0.55027738338E+01 0.58202785667E+01 0.62181598377E+01
 0.67075014203E+01 0.72942727922E+01 0.98273483704E+01 0.11016711105E+02 0.12235253533E+02
 0.13420090414E+02 0.14494974390E+02 0.15362262817E+02 0.15927815678E+02 0.16124426297E+02
 0.15927814484E+02 0.15362261385E+02 0.14494974178E+02 0.13420092746E+02 0.12235258964E+02
 0.11016719059E+02 0.98273573828E+01 0.87309648402E+01 0.77693475631E+01 0.69602919439E+01
 0.63018339147E+01 0.57793199351E+01 0.53727706290E+01 0.50627166467E+01 0.48336817352E+01
 0.46753484530E+01 0.45819979298E+01 0.45511024090E+01 0.45819971682E+01 0.46753474091E+01
 0.48336810824E+01 0.50627167916E+01 0.53727713930E+01 0.57793204523E+01 0.63018329958E+01
 0.69602885527E+01 0.77693413504E+01 0.87309564915E+01 0.12674065589E+02 0.14470080927E+02
 0.16338273726E+02 0.18144152110E+02 0.19715231287E+02 0.20879031828E+02 0.21498574193E+02
 0.21498572740E+02 0.20879028046E+02 0.19715226741E+02 0.18144148694E+02 0.16338272980E+02
 0.14470083508E+02 0.12674071108E+02 0.11016719059E+02 0.95300786382E+01 0.82585229315E+01
 0.72163185223E+01 0.63910381653E+01 0.57549072712E+01 0.52754680995E+01 0.49231807689E+01
 0.46753484530E+01 0.45169549273E+01 0.44395613449E+01 0.44395611599E+01 0.45169544995E+01
 0.46753480555E+01 0.49231805809E+01 0.52754679809E+01 0.57549066649E+01 0.63910363152E+01
 0.72163147707E+01 0.82585171728E+01 0.95300715680E+01 0.11016711935E+02 0.17039671126E+02
 0.19842649798E+02 0.22675377789E+02 0.25274001745E+02 0.27367075367E+02 0.28724665538E+02
 0.29194823194E+02 0.28724661871E+02 0.27367068977E+02 0.25273994253E+02 0.22675370997E+02
 0.19842645148E+02 0.17039669350E+02 0.14470083508E+02 0.12235258964E+02 0.10324701496E+02
 0.87299652611E+01 0.74560600075E+01 0.64750133880E+01 0.57415180057E+01 0.52074671030E+01
 0.48312818610E+01 0.45819979298E+01 0.44395613449E+01 0.43931945575E+01 0.44395616745E+01
 0.45819984645E+01 0.48312823386E+01 0.52074671591E+01 0.57415172146E+01 0.64750114516E+01
 0.74560568342E+01 0.87299612375E+01 0.10324697372E+02 0.12235255808E+02 0.14470082491E+02
 0.23798863345E+02 0.27928762122E+02 0.31865716122E+02 0.35225296715E+02 0.37670218782E+02
 0.38956104694E+02 0.38956103148E+02 0.37670214337E+02 0.35225289921E+02 0.31865707822E+02
 0.27928753447E+02 0.23798855466E+02 0.19842645148E+02 0.16338272980E+02 0.13420092746E+02
 0.11058322261E+02 0.91477640566E+01 0.76589964436E+01 0.65435801571E+01 0.57349233495E+01
 0.51670724253E+01 0.47855233629E+01 0.45511024090E+01 0.44395611599E+01 0.44395616745E+01
 0.45511036998E+01 0.47855247908E+01 0.51670732287E+01 0.57349229704E+01 0.65435785160E+01
 0.76589939894E+01 0.91477617366E+01 0.11058321107E+02 0.13420093726E+02 0.16338276548E+02
 0.19842651166E+02 0.33550700629E+02 0.39064681445E+02 0.43965213171E+02 0.47803238559E+02
 0.50241447029E+02 0.51076573434E+02 0.50241446309E+02 0.47803236635E+02 0.43965209389E+02
 0.39064675415E+02 0.33550692621E+02 0.27928753447E+02 0.22675370997E+02 0.18144148694E+02
 0.14494974178E+02 0.11672653414E+02 0.94766887760E+01 0.78063820350E+01 0.65883877635E+01
 0.57323188963E+01 0.51536526594E+01 0.47855228886E+01 0.45819971682E+01 0.45169544995E+01
 0.45819984645E+01 0.47855247908E+01 0.51536541348E+01 0.57323191108E+01 0.65883865557E+01
 0.78063800730E+01 0.94766873783E+01 0.11672653953E+02 0.14494977629E+02 0.18144155037E+02
 0.22675379386E+02 0.27928762413E+02 0.46279833654E+02 0.52878481928E+02 0.58300599028E+02
 0.62128279057E+02 0.64101869554E+02 0.64101870930E+02 0.62128282467E+02 0.58300602691E+02
 0.52878483767E+02 0.46279832185E+02 0.39064675415E+02 0.31865707822E+02 0.25273994253E+02
 0.19715226741E+02 0.15362261385E+02 0.12117084566E+02 0.96871851955E+01 0.78839329211E+01
 0.66039590996E+01 0.57323185330E+01 0.51670716888E+01 0.48312807700E+01 0.46753474091E+01
 0.46753480555E+01 0.48312823386E+01 0.51670732287E+01 0.57323191108E+01 0.66039583276E+01
 0.78839313286E+01 0.96871840481E+01 0.12117085346E+02 0.15362265070E+02 0.19715233196E+02
 0.25274002249E+02 0.31865715313E+02 0.39064680426E+02 0.61196428903E+02 0.68245122626E+02
 0.73540274329E+02 0.76800274231E+02 0.77898087500E+02 0.76800279401E+02 0.73540282974E+02
 0.68245131983E+02 0.61196436173E+02 0.52878483767E+02 0.43965209389E+02 0.35225289921E+02
 0.27367068977E+02 0.20879028046E+02 0.15927814484E+02 0.12351251378E+02 0.97596382408E+01
 0.78839324330E+01 0.65883870084E+01 0.57349225391E+01 0.52074662488E+01 0.49231798726E+01
 0.48336810824E+01 0.49231805809E+01 0.52074671591E+01 0.57349229704E+01 0.65883865557E+01
 0.78839313286E+01 0.97596373427E+01 0.12351251807E+02 0.15927817010E+02 0.20879032534E+02
 0.27367074252E+02 0.35225293988E+02 0.43965210315E+02 0.52878480436E+02 0.76834062428E+02
 0.83517445552E+02 0.88021668515E+02 0.90271509425E+02 0.90271512243E+02 0.88021676259E+02
 0.83517456308E+02 0.76834073741E+02 0.68245131983E+02 0.58300602691E+02 0.47803236635E+02
 0.37670214337E+02 0.28724661871E+02 0.21498572740E+02 0.16124426297E+02 0.12351251323E+02
 0.96871843074E+01 0.78063806423E+01 0.65435790249E+01 0.57415174812E+01 0.52754680577E+01
 0.50627167934E+01 0.50627167916E+01 0.52754679809E+01 0.57415172146E+01 0.65435785160E+01
 0.78063800730E+01 0.96871840481E+01 0.12351251807E+02 0.16124427696E+02 0.21498574737E+02
 0.28724663563E+02 0.37670214404E+02 0.47803233840E+02 0.58300596340E+02 0.68245122410E+02
 0.91419161180E+02 0.96982852508E+02 0.10023135429E+03 0.10129249800E+03 0.10023135683E+03
 0.96982857316E+02 0.91419167763E+02 0.83517456308E+02 0.73540282974E+02 0.62128282467E+02
 0.50241446309E+02 0.38956103148E+02 0.29194823194E+02 0.21498574193E+02 0.15927815678E+02
 0.12117084080E+02 0.94766868256E+01 0.76589943678E+01 0.64750125353E+01 0.57549079099E+01
 0.53727722064E+01 0.52536207976E+01 0.53727713930E+01 0.57549066649E+01 0.64750114516E+01
 0.76589939894E+01 0.94766873783E+01 0.12117085346E+02 0.15927817010E+02 0.21498574737E+02
 0.29194822138E+02 0.38956099992E+02 0.50241441053E+02 0.62128275544E+02 0.73540275212E+02
 0.83517448678E+02 0.10339279427E+03 0.10737622872E+03 0.10924698471E+03 0.10924698311E+03
 0.10737622464E+03 0.10339278961E+03 0.96982857316E+02 0.88021676259E+02 0.76800279401E+02
 0.64101870930E+02 0.51076573434E+02 0.38956104694E+02 0.28724665538E+02 0.20879031828E+02
 0.15362262817E+02 0.11672651739E+02 0.91477608525E+01 0.74560576780E+01 0.63910383129E+01
 0.57793224138E+01 0.55027746410E+01 0.55027738338E+01 0.57793204523E+01 0.63910363152E+01
 0.74560568342E+01 0.91477617366E+01 0.11672653953E+02 0.15362265070E+02 0.20879032534E+02
 0.28724663563E+02 0.38956099992E+02 0.51076567176E+02 0.64101865073E+02 0.76800275912E+02
 0.88021676205E+02 0.96982860404E+02 0.11187621071E+03 0.11423599536E+03 0.11495463531E+03
 0.11423598630E+03 0.11187619548E+03 0.10737622464E+03 0.10023135683E+03 0.90271512243E+02
 0.77898087500E+02 0.64101869554E+02 0.50241447029E+02 0.37670218782E+02 0.27367075367E+02
 0.19715231287E+02 0.14494974390E+02 0.11058318625E+02 0.87299608783E+01 0.72163165431E+01
 0.63018356855E+01 0.58202804961E+01 0.56708907035E+01 0.58202785667E+01 0.63018329958E+01
 0.72163147707E+01 0.87299612375E+01 0.11058321107E+02 0.14494977629E+02 0.19715233196E+02
 0.27367074252E+02 0.37670214404E+02 0.50241441053E+02 0.64101865073E+02 0.77898087825E+02
 0.90271519332E+02 0.10023137023E+03 0.10737624133E+03 0.11688282237E+03 0.11795240725E+03
 0.11795240051E+03 0.11688280411E+03 0.11423598630E+03 0.10924698311E+03 0.10129249800E+03
 0.90271509425E+02 0.76800274231E+02 0.62128279057E+02 0.47803238559E+02 0.35225296715E+02
 0.25274001745E+02 0.18144152110E+02 0.13420090414E+02 0.10324695646E+02 0.82585178697E+01
 0.69602910237E+01 0.62181624385E+01 0.58841806092E+01 0.58841795174E+01 0.62181598377E+01
 0.69602885527E+01 0.82585171728E+01 0.10324697372E+02 0.13420093726E+02 0.18144155037E+02
 0.25274002249E+02 0.35225293988E+02 0.47803233840E+02 0.62128275544E+02 0.76800275912E+02
 0.90271519332E+02 0.10129251657E+03 0.10924700749E+03 0.11423601090E+03 0.11918865345E+03
 0.11949229160E+03 0.11918864075E+03 0.11795240051E+03 0.11495463531E+03 0.10924698471E+03
 0.10023135429E+03 0.88021668515E+02 0.73540274329E+02 0.58300599028E+02 0.43965213171E+02
 0.31865716122E+02 0.22675377789E+02 0.16338273726E+02 0.12235253533E+02 0.95300710969E+01
 0.77693427779E+01 0.67075037131E+01 0.61500586286E+01 0.59775070486E+01 0.61500569569E+01
 0.67075014203E+01 0.77693413504E+01 0.95300715680E+01 0.12235255808E+02 0.16338276548E+02
 0.22675379386E+02 0.31865715313E+02 0.43965210315E+02 0.58300596340E+02 0.73540275212E+02
 0.88021676205E+02 0.10023137023E+03 0.10924700749E+03 0.11495466065E+03 0.11795242240E+03
 0.11992133899E+03 0.11992133494E+03 0.11949229160E+03 0.11795240725E+03 0.11423599536E+03
 0.10737622872E+03 0.96982852508E+02 0.83517445552E+02 0.68245122626E+02 0.52878481928E+02
 0.39064681445E+02 0.27928762122E+02 0.19842649798E+02 0.14470080927E+02 0.11016711105E+02
 0.87309567997E+01 0.72942739530E+01 0.64741402587E+01 0.61056592144E+01 0.61056586946E+01
 0.64741390300E+01 0.72942727922E+01 0.87309564915E+01 0.11016711935E+02 0.14470082491E+02
 0.19842651166E+02 0.27928762413E+02 0.39064680426E+02 0.52878480436E+02 0.68245122410E+02
 0.83517448678E+02 0.96982860404E+02 0.10737624133E+03 0.11423601090E+03 0.11795242240E+03
 0.11949230265E+03 0.11992133899E+03 0.11949230265E+03 0.11795242240E+03 0.11423601090E+03
 0.10737624133E+03 0.96982860404E+02 0.83517448678E+02 0.68245122410E+02 0.52878480436E+02
 0.39064680426E+02 0.27928762413E+02 0.19842651166E+02 0.14470082491E+02 0.11016711935E+02
 0.87309564915E+01 0.72942727922E+01 0.64741390300E+01 0.61056586946E+01 0.61056592144E+01
 0.64741402587E+01 0.72942739530E+01 0.87309567997E+01 0.11016711105E+02 0.14470080927E+02
 0.19842649798E+02 0.27928762122E+02 0.39064681445E+02 0.52878481928E+02 0.68245122626E+02
 0.83517445552E+02 0.96982852508E+02 0.10737622872E+03 0.11423599536E+03 0.11795240725E+03
 0.11949229160E+03 0.11992133494E+03 0.11949230265E+03 0.11836241844E+03 0.11551410449E+03
 0.10996295685E+03 0.10107184983E+03 0.88922841920E+02 0.74422598083E+02 0.59089316387E+02
 0.44608288384E+02 0.32343532796E+02 0.23000026827E+02 0.16544415495E+02 0.12367099459E+02
 0.96222864567E+01 0.78354627635E+01 0.67578735781E+01 0.61922673678E+01 0.60172199617E+01
 0.61922691535E+01 0.67578760259E+01 0.78354642873E+01 0.96222859561E+01 0.12367097041E+02
 0.16544412508E+02 0.23000025136E+02 0.32343533597E+02 0.44608291210E+02 0.59089318764E+02
 0.74422596301E+02 0.88922832480E+02 0.10107183127E+03 0.10996293082E+03 0.11551407580E+03
 0.11836239378E+03 0.11949228838E+03 0.11975755579E+03 0.11795242240E+03 0.11551410449E+03
 0.11076763139E+03 0.10302250107E+03 0.92115426282E+02 0.78623121195E+02 0.63790170152E+02
 0.49194779381E+02 0.36291894499E+02 0.26022023898E+02 0.18629446318E+02 0.13725621402E+02
 0.10532582320E+02 0.84053170290E+01 0.70684176064E+01 0.63044708829E+01 0.59608408798E+01
 0.59608421309E+01 0.63044738565E+01 0.70684204164E+01 0.84053177927E+01 0.10532580316E+02
 0.13725617614E+02 0.18629442998E+02 0.26022023304E+02 0.36291897370E+02 0.49194784015E+02
 0.63790172578E+02 0.78623116638E+02 0.92115411266E+02 0.10302247536E+03 0.11076759886E+03
 0.11551407224E+03 0.11795239865E+03 0.11890250806E+03 0.11890251680E+03 0.11423601090E+03
 0.10996295685E+03 0.10302250107E+03 0.93165210418E+02 0.80733722580E+02 0.66699637322E+02
 0.52448762677E+02 0.39399260107E+02 0.28611225573E+02 0.20541117928E+02 0.15016182976E+02
 0.11401832732E+02 0.89705608770E+01 0.73890996136E+01 0.64341834333E+01 0.59318324244E+01
 0.57761053647E+01 0.59318348207E+01 0.64341867410E+01 0.73891017152E+01 0.89705602776E+01
 0.11401829517E+02 0.15016178921E+02 0.20541115621E+02 0.28611226949E+02 0.39399265056E+02
 0.52448768593E+02 0.66699639786E+02 0.80733717211E+02 0.93165194898E+02 0.10302247666E+03
 0.10996292851E+03 0.11423598585E+03 0.11642313327E+03 0.11707774337E+03 0.11642314796E+03
 0.10737624133E+03 0.10107184983E+03 0.92115426282E+02 0.80733722580E+02 0.67682103263E+02
 0.54131640996E+02 0.41379727508E+02 0.30501426013E+02 0.22082571398E+02 0.16129812097E+02
 0.12167070936E+02 0.94915605765E+01 0.76984671223E+01 0.65704894094E+01 0.59236847371E+01
 0.56317327682E+01 0.56317339022E+01 0.59236874602E+01 0.65704920674E+01 0.76984680159E+01
 0.94915589702E+01 0.12167067580E+02 0.16129808971E+02 0.22082570722E+02 0.30501429033E+02
 0.41379733588E+02 0.54131647609E+02 0.67682106861E+02 0.80733720156E+02 0.92115416817E+02
 0.10107183502E+03 0.10737622522E+03 0.11123136241E+03 0.11301866459E+03 0.11301866926E+03
 0.11123137484E+03 0.96982860404E+02 0.88922841920E+02 0.78623121195E+02 0.66699637322E+02
 0.54131640996E+02 0.42059169583E+02 0.31497486818E+02 0.23083610700E+02 0.16951832327E+02
 0.12771958634E+02 0.99273260574E+01 0.79726534444E+01 0.67008170952E+01 0.59292189805E+01
 0.55208906711E+01 0.53938028268E+01 0.55208921494E+01 0.59292211095E+01 0.67008186568E+01
 0.79726534815E+01 0.99273244261E+01 0.12771956158E+02 0.16951830498E+02 0.23083610983E+02
 0.31497489974E+02 0.42059175212E+02 0.54131647679E+02 0.66699643143E+02 0.78623124566E+02
 0.88922842244E+02 0.96982858337E+02 0.10259432760E+03 0.10584054168E+03 0.10689526342E+03
 0.10584054371E+03 0.10259433052E+03 0.83517448678E+02 0.74422598083E+02 0.63790170152E+02
 0.52448762677E+02 0.41379727508E+02 0.31497486818E+02 0.23430543169E+02 0.17388829403E+02
 0.13162087566E+02 0.10241091823E+02 0.81884539794E+01 0.68124252210E+01 0.59415574091E+01
 0.54377000001E+01 0.52084982830E+01 0.52084986441E+01 0.54377009275E+01 0.59415584875E+01
 0.68124259467E+01 0.81884539619E+01 0.10241090972E+02 0.13162086159E+02 0.17388828080E+02
 0.23430542737E+02 0.31497488074E+02 0.41379730973E+02 0.52448768438E+02 0.63790177827E+02
 0.74422606806E+02 0.83517457303E+02 0.90534393729E+02 0.95230944640E+02 0.97566162105E+02
 0.97566160388E+02 0.95230939759E+02 0.90534386436E+02 0.68245122410E+02 0.59089316387E+02
 0.49194779381E+02 0.39399260107E+02 0.30501426013E+02 0.23083610700E+02 0.17388829403E+02
 0.13297072071E+02 0.10405321588E+02 0.83265124046E+01 0.68939868265E+01 0.59548287070E+01
 0.53779425999E+01 0.50687814393E+01 0.49717891179E+01 0.50687812910E+01 0.53779425024E+01
 0.59548288901E+01 0.68939873313E+01 0.83265129350E+01 0.10405321604E+02 0.13297071037E+02
 0.17388827207E+02 0.23083607874E+02 0.30501423781E+02 0.39399260026E+02 0.49194782722E+02
 0.59089323592E+02 0.68245132664E+02 0.75948853898E+02 0.81703945256E+02 0.85233508350E+02
 0.86419754401E+02 0.85233502780E+02 0.81703935580E+02 0.75948842605E+02 0.52878480436E+02
 0.44608288384E+02 0.36291894499E+02 0.28611225573E+02 0.22082571398E+02 0.16951832327E+02
 0.13162087566E+02 0.10405321588E+02 0.83740233130E+01 0.69370310277E+01 0.59646119467E+01
 0.53390870384E+01 0.49705072514E+01 0.48003976114E+01 0.48003971514E+01 0.49705061653E+01
 0.53390860604E+01 0.59646117532E+01 0.69370318010E+01 0.83740244628E+01 0.10405321998E+02
 0.13162086064E+02 0.16951828418E+02 0.22082565631E+02 0.28611219539E+02 0.36291890348E+02
 0.44608287846E+02 0.52878484133E+02 0.60393103296E+02 0.66537138952E+02 0.70859365793E+02
 0.73083404845E+02 0.73083402433E+02 0.70859359417E+02 0.66537130865E+02 0.60393096291E+02
 0.39064680426E+02 0.32343532796E+02 0.26022023898E+02 0.20541117928E+02 0.16129812097E+02
 0.12771958634E+02 0.10241091823E+02 0.83265124046E+01 0.69370310277E+01 0.59681797042E+01