   1   1   1   0
  0.1371139E+02  0.2686574E-09  0.2686574E-09  0.2686574E-09  0.5000000E-15
  1.000000000000000E-004
  CAR 
 Pt-fcc                                  
     75.32043032    -44.92200414  301     14.07707885      1.00000000
    -44.922  0.0000E+00  0.0000E+00
    -44.521  0.0000E+00  0.0000E+00
    -44.120  0.0000E+00  0.0000E+00
    -43.720  0.0000E+00  0.0000E+00
    -43.319  0.0000E+00  0.0000E+00
    -42.918  0.0000E+00  0.0000E+00
    -42.517  0.0000E+00  0.0000E+00
    -42.116  0.0000E+00  0.0000E+00
    -41.716  0.0000E+00  0.0000E+00
    -41.315  0.0000E+00  0.0000E+00
    -40.914  0.0000E+00  0.0000E+00
    -40.513  0.0000E+00  0.0000E+00
    -40.112  0.0000E+00  0.0000E+00
    -39.711  0.8943E-16  0.3584E-16
    -39.311  0.2506E-01  0.1004E-01
    -38.910  0.9209E-01  0.4850E-01
    -38.509  0.2312E-01  0.6000E-01
    -38.108  0.0000E+00  0.6000E-01
    -37.707  0.0000E+00  0.6000E-01
    -37.307  0.0000E+00  0.6000E-01
    -36.906  0.0000E+00  0.6000E-01
    -36.505  0.0000E+00  0.6000E-01
    -36.104  0.0000E+00  0.6000E-01
    -35.703  0.0000E+00  0.6000E-01
    -35.303  0.0000E+00  0.6000E-01
    -34.902  0.0000E+00  0.6000E-01
    -34.501  0.0000E+00  0.6000E-01
    -34.100  0.0000E+00  0.6000E-01
    -33.699  0.0000E+00  0.6000E-01
    -33.299  0.0000E+00  0.6000E-01
    -32.898  0.0000E+00  0.6000E-01
    -32.497  0.0000E+00  0.6000E-01
    -32.096  0.0000E+00  0.6000E-01
    -31.695  0.0000E+00  0.6000E-01
    -31.295  0.0000E+00  0.6000E-01
    -30.894  0.0000E+00  0.6000E-01
    -30.493  0.0000E+00  0.6000E-01
    -30.092  0.0000E+00  0.6000E-01
    -29.691  0.0000E+00  0.6000E-01
    -29.290  0.0000E+00  0.6000E-01
    -28.890  0.0000E+00  0.6000E-01
    -28.489  0.0000E+00  0.6000E-01
    -28.088  0.0000E+00  0.6000E-01
    -27.687  0.0000E+00  0.6000E-01
    -27.286  0.0000E+00  0.6000E-01
    -26.886  0.0000E+00  0.6000E-01
    -26.485  0.0000E+00  0.6000E-01
    -26.084  0.0000E+00  0.6000E-01
    -25.683  0.0000E+00  0.6000E-01
    -25.282  0.0000E+00  0.6000E-01
    -24.882  0.0000E+00  0.6000E-01
    -24.481  0.0000E+00  0.6000E-01
    -24.080  0.0000E+00  0.6000E-01
    -23.679  0.0000E+00  0.6000E-01
    -23.278  0.0000E+00  0.6000E-01
    -22.878  0.0000E+00  0.6000E-01
    -22.477  0.0000E+00  0.6000E-01
    -22.076  0.0000E+00  0.6000E-01
    -21.675  0.0000E+00  0.6000E-01
    -21.274  0.0000E+00  0.6000E-01
    -20.874  0.0000E+00  0.6000E-01
    -20.473  0.0000E+00  0.6000E-01
    -20.072  0.0000E+00  0.6000E-01
    -19.671  0.0000E+00  0.6000E-01
    -19.270  0.0000E+00  0.6000E-01
    -18.869  0.0000E+00  0.6000E-01
    -18.469  0.0000E+00  0.6000E-01
    -18.068  0.0000E+00  0.6000E-01
    -17.667  0.0000E+00  0.6000E-01
    -17.266  0.0000E+00  0.6000E-01
    -16.865  0.0000E+00  0.6000E-01
    -16.465  0.0000E+00  0.6000E-01
    -16.064  0.0000E+00  0.6000E-01
    -15.663  0.0000E+00  0.6000E-01
    -15.262  0.0000E+00  0.6000E-01
    -14.861  0.0000E+00  0.6000E-01
    -14.461  0.0000E+00  0.6000E-01
    -14.060  0.0000E+00  0.6000E-01
    -13.659  0.0000E+00  0.6000E-01
    -13.258  0.0000E+00  0.6000E-01
    -12.857  0.0000E+00  0.6000E-01
    -12.457  0.0000E+00  0.6000E-01
    -12.056  0.0000E+00  0.6000E-01
    -11.655  0.0000E+00  0.6000E-01
    -11.254  0.0000E+00  0.6000E-01
    -10.853  0.0000E+00  0.6000E-01
    -10.453  0.0000E+00  0.6000E-01
    -10.052  0.0000E+00  0.6000E-01
     -9.651  0.0000E+00  0.6000E-01
     -9.250  0.0000E+00  0.6000E-01
     -8.849  0.0000E+00  0.6000E-01
     -8.448  0.0000E+00  0.6000E-01
     -8.048  0.0000E+00  0.6000E-01
     -7.647  0.0000E+00  0.6000E-01
     -7.246  0.0000E+00  0.6000E-01
     -6.845  0.0000E+00  0.6000E-01
     -6.444  0.0000E+00  0.6000E-01
     -6.044  0.0000E+00  0.6000E-01
     -5.643  0.0000E+00  0.6000E-01
     -5.242  0.0000E+00  0.6000E-01
     -4.841  0.0000E+00  0.6000E-01
     -4.440  0.0000E+00  0.6000E-01
     -4.040  0.0000E+00  0.6000E-01
     -3.639  0.0000E+00  0.6000E-01
     -3.238  0.0000E+00  0.6000E-01
     -2.837  0.0000E+00  0.6000E-01
     -2.436  0.0000E+00  0.6000E-01
     -2.036  0.0000E+00  0.6000E-01
     -1.635  0.0000E+00  0.6000E-01
     -1.234  0.0000E+00  0.6000E-01
     -0.833  0.0000E+00  0.6000E-01
     -0.432  0.0000E+00  0.6000E-01
     -0.031  0.0000E+00  0.6000E-01
      0.369  0.0000E+00  0.6000E-01
      0.770  0.0000E+00  0.6000E-01
      1.171  0.0000E+00  0.6000E-01
      1.572  0.0000E+00  0.6000E-01
      1.973  0.0000E+00  0.6000E-01
      2.373  0.0000E+00  0.6000E-01
      2.774  0.2240E-04  0.6001E-01
      3.175  0.3733E-03  0.6016E-01
      3.576  0.3054E-03  0.6028E-01
      3.977  0.9626E-03  0.6067E-01
      4.377  0.3557E-03  0.6082E-01
      4.778  0.1449E-02  0.6140E-01
      5.179  0.1307E-02  0.6193E-01
      5.580  0.1474E-02  0.6263E-01
      5.981  0.5118E-02  0.6473E-01
      6.381  0.7881E-02  0.6790E-01
      6.782  0.1212E-01  0.7293E-01
      7.183  0.1260E-01  0.7828E-01
      7.584  0.9552E-02  0.8226E-01
      7.985  0.7989E-02  0.8573E-01
      8.385  0.1112E-01  0.9026E-01
      8.786  0.1231E-01  0.9521E-01
      9.187  0.1084E-01  0.9976E-01
      9.588  0.1405E-01  0.1057E+00
      9.989  0.1626E-01  0.1127E+00
     10.390  0.1585E-01  0.1193E+00
     10.790  0.1073E-01  0.1237E+00
     11.191  0.1002E-01  0.1278E+00
     11.592  0.1027E-01  0.1320E+00
     11.993  0.1261E-01  0.1372E+00
     12.394  0.1191E-01  0.1421E+00
     12.794  0.5784E-02  0.1449E+00
     13.195  0.1145E-01  0.1495E+00
     13.596  0.8160E-02  0.1529E+00
     13.997  0.1423E-01  0.1588E+00
     14.398  0.1428E-01  0.1647E+00
     14.798  0.3986E-02  0.1664E+00
     15.199  0.1934E-02  0.1672E+00
     15.600  0.3476E-02  0.1688E+00
     16.001  0.1415E-02  0.1693E+00
     16.402  0.3442E-02  0.1707E+00
     16.802  0.2789E-02  0.1718E+00
     17.203  0.2374E-02  0.1728E+00
     17.604  0.1703E-02  0.1735E+00
     18.005  0.2993E-02  0.1747E+00
     18.406  0.1905E-02  0.1755E+00
     18.806  0.2159E-02  0.1764E+00
     19.207  0.2023E-02  0.1772E+00
     19.608  0.1491E-02  0.1780E+00
     20.009  0.1795E-02  0.1787E+00
     20.410  0.3157E-02  0.1799E+00
     20.811  0.2850E-02  0.1811E+00
     21.211  0.4292E-02  0.1828E+00
     21.612  0.2376E-02  0.1840E+00
     22.013  0.1293E-02  0.1845E+00
     22.414  0.5557E-02  0.1867E+00
     22.815  0.1552E-02  0.1874E+00
     23.215  0.2663E-02  0.1885E+00
     23.616  0.3862E-02  0.1901E+00
     24.017  0.2435E-02  0.1911E+00
     24.418  0.1456E-02  0.1918E+00
     24.819  0.3933E-02  0.1934E+00
     25.219  0.2632E-02  0.1947E+00
     25.620  0.3268E-02  0.1960E+00
     26.021  0.3993E-02  0.1976E+00
     26.422  0.3726E-02  0.1992E+00
     26.823  0.2982E-02  0.2004E+00
     27.223  0.5511E-02  0.2028E+00
     27.624  0.4664E-02  0.2048E+00
     28.025  0.2763E-02  0.2059E+00
     28.426  0.5820E-02  0.2084E+00
     28.827  0.5640E-02  0.2107E+00
     29.227  0.7117E-02  0.2136E+00
     29.628  0.9535E-02  0.2175E+00
     30.029  0.4743E-02  0.2196E+00
     30.430  0.8290E-02  0.2230E+00
     30.831  0.6195E-02  0.2259E+00
     31.232  0.5491E-02  0.2281E+00
     31.632  0.5979E-02  0.2307E+00
     32.033  0.5313E-02  0.2329E+00
     32.434  0.2567E-02  0.2340E+00
     32.835  0.3362E-02  0.2354E+00
     33.236  0.2414E-02  0.2363E+00
     33.636  0.4028E-02  0.2381E+00
     34.037  0.6886E-02  0.2409E+00
     34.438  0.6562E-02  0.2436E+00
     34.839  0.7423E-02  0.2466E+00
     35.240  0.5302E-02  0.2488E+00
     35.640  0.7343E-02  0.2518E+00
     36.041  0.6965E-02  0.2547E+00
     36.442  0.5807E-02  0.2571E+00
     36.843  0.2706E-02  0.2582E+00
     37.244  0.1373E-02  0.2587E+00
     37.644  0.3946E-02  0.2603E+00
     38.045  0.3810E-02  0.2618E+00
     38.446  0.3661E-02  0.2634E+00
     38.847  0.4928E-02  0.2654E+00
     39.248  0.4511E-02  0.2673E+00
     39.649  0.5722E-02  0.2696E+00
     40.049  0.6072E-02  0.2722E+00
     40.450  0.4589E-02  0.2741E+00
     40.851  0.6004E-02  0.2765E+00
     41.252  0.3629E-02  0.2780E+00
     41.653  0.6092E-02  0.2805E+00
     42.053  0.6632E-02  0.2833E+00
     42.454  0.8512E-02  0.2869E+00
     42.855  0.9006E-02  0.2907E+00
     43.256  0.1012E-01  0.2949E+00
     43.657  0.8632E-02  0.2985E+00
     44.057  0.1026E-01  0.3029E+00
     44.458  0.6677E-02  0.3056E+00
     44.859  0.5680E-02  0.3082E+00
     45.260  0.4053E-02  0.3099E+00
     45.661  0.6783E-02  0.3127E+00
     46.061  0.2810E-02  0.3139E+00
     46.462  0.7722E-02  0.3170E+00
     46.863  0.6479E-02  0.3196E+00
     47.264  0.5458E-02  0.3220E+00
     47.665  0.1198E-01  0.3268E+00
     48.065  0.5649E-02  0.3294E+00
     48.466  0.8488E-02  0.3329E+00
     48.867  0.4153E-02  0.3347E+00
     49.268  0.4061E-02  0.3364E+00
     49.669  0.5573E-02  0.3387E+00
     50.070  0.5720E-02  0.3412E+00
     50.470  0.5712E-02  0.3436E+00
     50.871  0.7971E-02  0.3469E+00
     51.272  0.6763E-02  0.3497E+00
     51.673  0.7909E-02  0.3529E+00
     52.074  0.1077E-01  0.3573E+00
     52.474  0.9983E-02  0.3614E+00
     52.875  0.6659E-02  0.3643E+00
     53.276  0.6119E-02  0.3669E+00
     53.677  0.1168E-01  0.3716E+00
     54.078  0.1197E-01  0.3764E+00
     54.478  0.5773E-01  0.3997E+00
     54.879  0.5989E-02  0.4021E+00
     55.280  0.4466E-02  0.4039E+00
     55.681  0.5439E-02  0.4061E+00
     56.082  0.8180E-02  0.4095E+00
     56.482  0.7830E-02  0.4127E+00
     56.883  0.7219E-02  0.4157E+00
     57.284  0.6042E-02  0.4184E+00
     57.685  0.6731E-02  0.4212E+00
     58.086  0.8816E-02  0.4247E+00
     58.486  0.8856E-02  0.4284E+00
     58.887  0.6312E-02  0.4311E+00
     59.288  0.6710E-02  0.4338E+00
     59.689  0.7537E-02  0.4370E+00
     60.090  0.5653E-02  0.4393E+00
     60.491  0.6879E-02  0.4423E+00
     60.891  0.8415E-02  0.4458E+00
     61.292  0.9547E-02  0.4498E+00
     61.693  0.7571E-02  0.4529E+00
     62.094  0.8750E-02  0.4565E+00
     62.495  0.9074E-02  0.4602E+00
     62.895  0.5805E-02  0.4628E+00
     63.296  0.9806E-02  0.4667E+00
     63.697  0.4294E-02  0.4684E+00
     64.098  0.5296E-02  0.4706E+00
     64.499  0.7603E-02  0.4737E+00
     64.899  0.3650E-02  0.4752E+00
     65.300  0.2627E-02  0.4764E+00
     65.701  0.1352E-02  0.4769E+00
     66.102  0.1896E-02  0.4777E+00
     66.503  0.1174E-02  0.4782E+00
     66.903  0.1926E-02  0.4790E+00
     67.304  0.2990E-03  0.4792E+00
     67.705  0.1175E-02  0.4796E+00
     68.106  0.0000E+00  0.4796E+00
     68.507  0.2725E-03  0.4797E+00
     68.908  0.2989E-03  0.4799E+00
     69.308  0.0000E+00  0.4799E+00
     69.709  0.5613E-08  0.4799E+00
     70.110  0.2994E-03  0.4800E+00
     70.511  0.0000E+00  0.4800E+00
     70.912  0.0000E+00  0.4800E+00
     71.312  0.0000E+00  0.4800E+00
     71.713  0.0000E+00  0.4800E+00
     72.114  0.0000E+00  0.4800E+00
     72.515  0.0000E+00  0.4800E+00
     72.916  0.0000E+00  0.4800E+00
     73.316  0.0000E+00  0.4800E+00
     73.717  0.0000E+00  0.4800E+00
     74.118  0.0000E+00  0.4800E+00
     74.519  0.0000E+00  0.4800E+00
     74.920  0.0000E+00  0.4800E+00
     75.320  0.0000E+00  0.4800E+00
     75.32043032    -44.92200414  301     14.07707885      1.00000000
    -44.922  0.0000E+00  0.0000E+00  0.0000E+00  0.0000E+00  0.0000E+00  0.0000E+00  0.0000E+00  0.0000E+00  0.0000E+00
    -44.521  0.0000E+00  0.0000E+00  0.0000E+00  0.0000E+00  0.0000E+00  0.0000E+00  0.0000E+00  0.0000E+00  0.0000E+00
    -44.120  0.0000E+00  0.0000E+00  0.0000E+00  0.0000E+00  0.0000E+00  0.0000E+00  0.0000E+00  0.0000E+00  0.0000E+00
    -43.720  0.0000E+00  0.0000E+00  0.0000E+00  0.0000E+00  0.0000E+00  0.0000E+00  0.0000E+00  0.0000E+00  0.0000E+00
    -43.319  0.0000E+00  0.0000E+00  0.0000E+00  0.0000E+00  0.0000E+00  0.0000E+00  0.0000E+00  0.0000E+00  0.0000E+00
    -42.918  0.0000E+00  0.0000E+00  0.0000E+00  0.0000E+00  0.0000E+00  0.0000E+00  0.0000E+00  0.0000E+00  0.0000E+00
    -42.517  0.0000E+00  0.0000E+00  0.0000E+00  0.0000E+00  0.0000E+00  0.0000E+00  0.0000E+00  0.0000E+00  0.0000E+00
    -42.116  0.0000E+00  0.0000E+00  0.0000E+00  0.0000E+00  0.0000E+00  0.0000E+00  0.0000E+00  0.0000E+00  0.0000E+00
    -41.716  0.0000E+00  0.0000E+00  0.0000E+00  0.0000E+00  0.0000E+00  0.0000E+00  0.0000E+00  0.0000E+00  0.0000E+00
    -41.315  0.0000E+00  0.0000E+00  0.0000E+00  0.0000E+00  0.0000E+00  0.0000E+00  0.0000E+00  0.0000E+00  0.0000E+00
    -40.914  0.0000E+00  0.0000E+00  0.0000E+00  0.0000E+00  0.0000E+00  0.0000E+00  0.0000E+00  0.0000E+00  0.0000E+00
    -40.513  0.0000E+00  0.0000E+00  0.0000E+00  0.0000E+00  0.0000E+00  0.0000E+00  0.0000E+00  0.0000E+00  0.0000E+00
    -40.112  0.0000E+00  0.0000E+00  0.0000E+00  0.0000E+00  0.0000E+00  0.0000E+00  0.0000E+00  0.0000E+00  0.0000E+00
    -39.711  0.3077E-19  0.2917E-14  0.2917E-14  0.2917E-14  0.1860E-19  0.1860E-19  0.1562E-19  0.1860E-19  0.1562E-19
    -39.311  0.1232E-03  0.8199E+00  0.8199E+00  0.8199E+00  0.4582E-04  0.4582E-04  0.2158E-04  0.4582E-04  0.2158E-04
    -38.910  0.4041E-03  0.3041E+01  0.3041E+01  0.3041E+01  0.2288E-03  0.2288E-03  0.1215E-03  0.2288E-03  0.1215E-03
    -38.509  0.1316E-04  0.7677E+00  0.7677E+00  0.7677E+00  0.2025E-04  0.2025E-04  0.1260E-04  0.2025E-04  0.1260E-04
    -38.108  0.0000E+00  0.0000E+00  0.0000E+00  0.0000E+00  0.0000E+00  0.0000E+00  0.0000E+00  0.0000E+00  0.0000E+00
    -37.707  0.0000E+00  0.0000E+00  0.0000E+00  0.0000E+00  0.0000E+00  0.0000E+00  0.0000E+00  0.0000E+00  0.0000E+00
    -37.307  0.0000E+00  0.0000E+00  0.0000E+00  0.0000E+00  0.0000E+00  0.0000E+00  0.0000E+00  0.0000E+00  0.0000E+00
    -36.906  0.0000E+00  0.0000E+00  0.0000E+00  0.0000E+00  0.0000E+00  0.0000E+00  0.0000E+00  0.0000E+00  0.0000E+00
    -36.505  0.0000E+00  0.0000E+00  0.0000E+00  0.0000E+00  0.0000E+00  0.0000E+00  0.0000E+00  0.0000E+00  0.0000E+00
    -36.104  0.0000E+00  0.0000E+00  0.0000E+00  0.0000E+00  0.0000E+00  0.0000E+00  0.0000E+00  0.0000E+00  0.0000E+00
    -35.703  0.0000E+00  0.0000E+00  0.0000E+00  0.0000E+00  0.0000E+00  0.0000E+00  0.0000E+00  0.0000E+00  0.0000E+00
    -35.303  0.0000E+00  0.0000E+00  0.0000E+00  0.0000E+00  0.0000E+00  0.0000E+00  0.0000E+00  0.0000E+00  0.0000E+00
    -34.902  0.0000E+00  0.0000E+00  0.0000E+00  0.0000E+00  0.0000E+00  0.0000E+00  0.0000E+00  0.0000E+00  0.0000E+00
    -34.501  0.0000E+00  0.0000E+00  0.0000E+00  0.0000E+00  0.0000E+00  0.0000E+00  0.0000E+00  0.0000E+00  0.0000E+00
    -34.100  0.0000E+00  0.0000E+00  0.0000E+00  0.0000E+00  0.0000E+00  0.0000E+00  0.0000E+00  0.0000E+00  0.0000E+00
    -33.699  0.0000E+00  0.0000E+00  0.0000E+00  0.0000E+00  0.0000E+00  0.0000E+00  0.0000E+00  0.0000E+00  0.0000E+00
    -33.299  0.0000E+00  0.0000E+00  0.0000E+00  0.0000E+00  0.0000E+00  0.0000E+00  0.0000E+00  0.0000E+00  0.0000E+00
    -32.898  0.0000E+00  0.0000E+00  0.0000E+00  0.0000E+00  0.0000E+00  0.0000E+00  0.0000E+00  0.0000E+00  0.0000E+00
    -32.497  0.0000E+00  0.0000E+00  0.0000E+00  0.0000E+00  0.0000E+00  0.0000E+00  0.0000E+00  0.0000E+00  0.0000E+00
    -32.096  0.0000E+00  0.0000E+00  0.0000E+00  0.0000E+00  0.0000E+00  0.0000E+00  0.0000E+00  0.0000E+00  0.0000E+00
    -31.695  0.0000E+00  0.0000E+00  0.0000E+00  0.0000E+00  0.0000E+00  0.0000E+00  0.0000E+00  0.0000E+00  0.0000E+00
    -31.295  0.0000E+00  0.0000E+00  0.0000E+00  0.0000E+00  0.0000E+00  0.0000E+00  0.0000E+00  0.0000E+00  0.0000E+00
    -30.894  0.0000E+00  0.0000E+00  0.0000E+00  0.0000E+00  0.0000E+00  0.0000E+00  0.0000E+00  0.0000E+00  0.0000E+00
    -30.493  0.0000E+00  0.0000E+00  0.0000E+00  0.0000E+00  0.0000E+00  0.0000E+00  0.0000E+00  0.0000E+00  0.0000E+00
    -30.092  0.0000E+00  0.0000E+00  0.0000E+00  0.0000E+00  0.0000E+00  0.0000E+00  0.0000E+00  0.0000E+00  0.0000E+00
    -29.691  0.0000E+00  0.0000E+00  0.0000E+00  0.0000E+00  0.0000E+00  0.0000E+00  0.0000E+00  0.0000E+00  0.0000E+00
    -29.290  0.0000E+00  0.0000E+00  0.0000E+00  0.0000E+00  0.0000E+00  0.0000E+00  0.0000E+00  0.0000E+00  0.0000E+00
    -28.890  0.0000E+00  0.0000E+00  0.0000E+00  0.0000E+00  0.0000E+00  0.0000E+00  0.0000E+00  0.0000E+00  0.0000E+00
    -28.489  0.0000E+00  0.0000E+00  0.0000E+00  0.0000E+00  0.0000E+00  0.0000E+00  0.0000E+00  0.0000E+00  0.0000E+00
    -28.088  0.0000E+00  0.0000E+00  0.0000E+00  0.0000E+00  0.0000E+00  0.0000E+00  0.0000E+00  0.0000E+00  0.0000E+00
    -27.687  0.0000E+00  0.0000E+00  0.0000E+00  0.0000E+00  0.0000E+00  0.0000E+00  0.0000E+00  0.0000E+00  0.0000E+00
    -27.286  0.0000E+00  0.0000E+00  0.0000E+00  0.0000E+00  0.0000E+00  0.0000E+00  0.0000E+00  0.0000E+00  0.0000E+00
    -26.886  0.0000E+00  0.0000E+00  0.0000E+00  0.0000E+00  0.0000E+00  0.0000E+00  0.0000E+00  0.0000E+00  0.0000E+00
    -26.485  0.0000E+00  0.0000E+00  0.0000E+00  0.0000E+00  0.0000E+00  0.0000E+00  0.0000E+00  0.0000E+00  0.0000E+00
    -26.084  0.0000E+00  0.0000E+00  0.0000E+00  0.0000E+00  0.0000E+00  0.0000E+00  0.0000E+00  0.0000E+00  0.0000E+00
    -25.683  0.0000E+00  0.0000E+00  0.0000E+00  0.0000E+00  0.0000E+00  0.0000E+00  0.0000E+00  0.0000E+00  0.0000E+00
    -25.282  0.0000E+00  0.0000E+00  0.0000E+00  0.0000E+00  0.0000E+00  0.0000E+00  0.0000E+00  0.0000E+00  0.0000E+00
    -24.882  0.0000E+00  0.0000E+00  0.0000E+00  0.0000E+00  0.0000E+00  0.0000E+00  0.0000E+00  0.0000E+00  0.0000E+00
    -24.481  0.0000E+00  0.0000E+00  0.0000E+00  0.0000E+00  0.0000E+00  0.0000E+00  0.0000E+00  0.0000E+00  0.0000E+00
    -24.080  0.0000E+00  0.0000E+00  0.0000E+00  0.0000E+00  0.0000E+00  0.0000E+00  0.0000E+00  0.0000E+00  0.0000E+00
    -23.679  0.0000E+00  0.0000E+00  0.0000E+00  0.0000E+00  0.0000E+00  0.0000E+00  0.0000E+00  0.0000E+00  0.0000E+00
    -23.278  0.0000E+00  0.0000E+00  0.0000E+00  0.0000E+00  0.0000E+00  0.0000E+00  0.0000E+00  0.0000E+00  0.0000E+00
    -22.878  0.0000E+00  0.0000E+00  0.0000E+00  0.0000E+00  0.0000E+00  0.0000E+00  0.0000E+00  0.0000E+00  0.0000E+00
    -22.477  0.0000E+00  0.0000E+00  0.0000E+00  0.0000E+00  0.0000E+00  0.0000E+00  0.0000E+00  0.0000E+00  0.0000E+00
    -22.076  0.0000E+00  0.0000E+00  0.0000E+00  0.0000E+00  0.0000E+00  0.0000E+00  0.0000E+00  0.0000E+00  0.0000E+00
    -21.675  0.0000E+00  0.0000E+00  0.0000E+00  0.0000E+00  0.0000E+00  0.0000E+00  0.0000E+00  0.0000E+00  0.0000E+00
    -21.274  0.0000E+00  0.0000E+00  0.0000E+00  0.0000E+00  0.0000E+00  0.0000E+00  0.0000E+00  0.0000E+00  0.0000E+00
    -20.874  0.0000E+00  0.0000E+00  0.0000E+00  0.0000E+00  0.0000E+00  0.0000E+00  0.0000E+00  0.0000E+00  0.0000E+00
    -20.473  0.0000E+00  0.0000E+00  0.0000E+00  0.0000E+00  0.0000E+00  0.0000E+00  0.0000E+00  0.0000E+00  0.0000E+00
    -20.072  0.0000E+00  0.0000E+00  0.0000E+00  0.0000E+00  0.0000E+00  0.0000E+00  0.0000E+00  0.0000E+00  0.0000E+00
    -19.671  0.0000E+00  0.0000E+00  0.0000E+00  0.0000E+00  0.0000E+00  0.0000E+00  0.0000E+00  0.0000E+00  0.0000E+00
    -19.270  0.0000E+00  0.0000E+00  0.0000E+00  0.0000E+00  0.0000E+00  0.0000E+00  0.0000E+00  0.0000E+00  0.0000E+00
    -18.869  0.0000E+00  0.0000E+00  0.0000E+00  0.0000E+00  0.0000E+00  0.0000E+00  0.0000E+00  0.0000E+00  0.0000E+00
    -18.469  0.0000E+00  0.0000E+00  0.0000E+00  0.0000E+00  0.0000E+00  0.0000E+00  0.0000E+00  0.0000E+00  0.0000E+00
    -18.068  0.0000E+00  0.0000E+00  0.0000E+00  0.0000E+00  0.0000E+00  0.0000E+00  0.0000E+00  0.0000E+00  0.0000E+00
    -17.667  0.0000E+00  0.0000E+00  0.0000E+00  0.0000E+00  0.0000E+00  0.0000E+00  0.0000E+00  0.0000E+00  0.0000E+00
    -17.266  0.0000E+00  0.0000E+00  0.0000E+00  0.0000E+00  0.0000E+00  0.0000E+00  0.0000E+00  0.0000E+00  0.0000E+00
    -16.865  0.0000E+00  0.0000E+00  0.0000E+00  0.0000E+00  0.0000E+00  0.0000E+00  0.0000E+00  0.0000E+00  0.0000E+00
    -16.465  0.0000E+00  0.0000E+00  0.0000E+00  0.0000E+00  0.0000E+00  0.0000E+00  0.0000E+00  0.0000E+00  0.0000E+00
    -16.064  0.0000E+00  0.0000E+00  0.0000E+00  0.0000E+00  0.0000E+00  0.0000E+00  0.0000E+00  0.0000E+00  0.0000E+00
    -15.663  0.0000E+00  0.0000E+00  0.0000E+00  0.0000E+00  0.0000E+00  0.0000E+00  0.0000E+00  0.0000E+00  0.0000E+00
    -15.262  0.0000E+00  0.0000E+00  0.0000E+00  0.0000E+00  0.0000E+00  0.0000E+00  0.0000E+00  0.0000E+00  0.0000E+00
    -14.861  0.0000E+00  0.0000E+00  0.0000E+00  0.0000E+00  0.0000E+00  0.0000E+00  0.0000E+00  0.0000E+00  0.0000E+00
    -14.461  0.0000E+00  0.0000E+00  0.0000E+00  0.0000E+00  0.0000E+00  0.0000E+00  0.0000E+00  0.0000E+00  0.0000E+00
    -14.060  0.0000E+00  0.0000E+00  0.0000E+00  0.0000E+00  0.0000E+00  0.0000E+00  0.0000E+00  0.0000E+00  0.0000E+00
    -13.659  0.0000E+00  0.0000E+00  0.0000E+00  0.0000E+00  0.0000E+00  0.0000E+00  0.0000E+00  0.0000E+00  0.0000E+00
    -13.258  0.0000E+00  0.0000E+00  0.0000E+00  0.0000E+00  0.0000E+00  0.0000E+00  0.0000E+00  0.0000E+00  0.0000E+00
    -12.857  0.0000E+00  0.0000E+00  0.0000E+00  0.0000E+00  0.0000E+00  0.0000E+00  0.0000E+00  0.0000E+00  0.0000E+00
    -12.457  0.0000E+00  0.0000E+00  0.0000E+00  0.0000E+00  0.0000E+00  0.0000E+00  0.0000E+00  0.0000E+00  0.0000E+00
    -12.056  0.0000E+00  0.0000E+00  0.0000E+00  0.0000E+00  0.0000E+00  0.0000E+00  0.0000E+00  0.0000E+00  0.0000E+00
    -11.655  0.0000E+00  0.0000E+00  0.0000E+00  0.0000E+00  0.0000E+00  0.0000E+00  0.0000E+00  0.0000E+00  0.0000E+00
    -11.254  0.0000E+00  0.0000E+00  0.0000E+00  0.0000E+00  0.0000E+00  0.0000E+00  0.0000E+00  0.0000E+00  0.0000E+00
    -10.853  0.0000E+00  0.0000E+00  0.0000E+00  0.0000E+00  0.0000E+00  0.0000E+00  0.0000E+00  0.0000E+00  0.0000E+00
    -10.453  0.0000E+00  0.0000E+00  0.0000E+00  0.0000E+00  0.0000E+00  0.0000E+00  0.0000E+00  0.0000E+00  0.0000E+00
    -10.052  0.0000E+00  0.0000E+00  0.0000E+00  0.0000E+00  0.0000E+00  0.0000E+00  0.0000E+00  0.0000E+00  0.0000E+00
     -9.651  0.0000E+00  0.0000E+00  0.0000E+00  0.0000E+00  0.0000E+00  0.0000E+00  0.0000E+00  0.0000E+00  0.0000E+00
     -9.250  0.0000E+00  0.0000E+00  0.0000E+00  0.0000E+00  0.0000E+00  0.0000E+00  0.0000E+00  0.0000E+00  0.0000E+00
     -8.849  0.0000E+00  0.0000E+00  0.0000E+00  0.0000E+00  0.0000E+00  0.0000E+00  0.0000E+00  0.0000E+00  0.0000E+00
     -8.448  0.0000E+00  0.0000E+00  0.0000E+00  0.0000E+00  0.0000E+00  0.0000E+00  0.0000E+00  0.0000E+00  0.0000E+00
     -8.048  0.0000E+00  0.0000E+00  0.0000E+00  0.0000E+00  0.0000E+00  0.0000E+00  0.0000E+00  0.0000E+00  0.0000E+00
     -7.647  0.0000E+00  0.0000E+00  0.0000E+00  0.0000E+00  0.0000E+00  0.0000E+00  0.0000E+00  0.0000E+00  0.0000E+00
     -7.246  0.0000E+00  0.0000E+00  0.0000E+00  0.0000E+00  0.0000E+00  0.0000E+00  0.0000E+00  0.0000E+00  0.0000E+00
     -6.845  0.0000E+00  0.0000E+00  0.0000E+00  0.0000E+00  0.0000E+00  0.0000E+00  0.0000E+00  0.0000E+00  0.0000E+00
     -6.444  0.0000E+00  0.0000E+00  0.0000E+00  0.0000E+00  0.0000E+00  0.0000E+00  0.0000E+00  0.0000E+00  0.0000E+00
     -6.044  0.0000E+00  0.0000E+00  0.0000E+00  0.0000E+00  0.0000E+00  0.0000E+00  0.0000E+00  0.0000E+00  0.0000E+00
     -5.643  0.0000E+00  0.0000E+00  0.0000E+00  0.0000E+00  0.0000E+00  0.0000E+00  0.0000E+00  0.0000E+00  0.0000E+00
     -5.242  0.0000E+00  0.0000E+00  0.0000E+00  0.0000E+00  0.0000E+00  0.0000E+00  0.0000E+00  0.0000E+00  0.0000E+00
     -4.841  0.0000E+00  0.0000E+00  0.0000E+00  0.0000E+00  0.0000E+00  0.0000E+00  0.0000E+00  0.0000E+00  0.0000E+00
     -4.440  0.0000E+00  0.0000E+00  0.0000E+00  0.0000E+00  0.0000E+00  0.0000E+00  0.0000E+00  0.0000E+00  0.0000E+00
     -4.040  0.0000E+00  0.0000E+00  0.0000E+00  0.0000E+00  0.0000E+00  0.0000E+00  0.0000E+00  0.0000E+00  0.0000E+00
     -3.639  0.0000E+00  0.0000E+00  0.0000E+00  0.0000E+00  0.0000E+00  0.0000E+00  0.0000E+00  0.0000E+00  0.0000E+00
     -3.238  0.0000E+00  0.0000E+00  0.0000E+00  0.0000E+00  0.0000E+00  0.0000E+00  0.0000E+00  0.0000E+00  0.0000E+00
     -2.837  0.0000E+00  0.0000E+00  0.0000E+00  0.0000E+00  0.0000E+00  0.0000E+00  0.0000E+00  0.0000E+00  0.0000E+00
     -2.436  0.0000E+00  0.0000E+00  0.0000E+00  0.0000E+00  0.0000E+00  0.0000E+00  0.0000E+00  0.0000E+00  0.0000E+00
     -2.036  0.0000E+00  0.0000E+00  0.0000E+00  0.0000E+00  0.0000E+00  0.0000E+00  0.0000E+00  0.0000E+00  0.0000E+00
     -1.635  0.0000E+00  0.0000E+00  0.0000E+00  0.0000E+00  0.0000E+00  0.0000E+00  0.0000E+00  0.0000E+00  0.0000E+00
     -1.234  0.0000E+00  0.0000E+00  0.0000E+00  0.0000E+00  0.0000E+00  0.0000E+00  0.0000E+00  0.0000E+00  0.0000E+00
     -0.833  0.0000E+00  0.0000E+00  0.0000E+00  0.0000E+00  0.0000E+00  0.0000E+00  0.0000E+00  0.0000E+00  0.0000E+00
     -0.432  0.0000E+00  0.0000E+00  0.0000E+00  0.0000E+00  0.0000E+00  0.0000E+00  0.0000E+00  0.0000E+00  0.0000E+00
     -0.031  0.0000E+00  0.0000E+00  0.0000E+00  0.0000E+00  0.0000E+00  0.0000E+00  0.0000E+00  0.0000E+00  0.0000E+00
      0.369  0.0000E+00  0.0000E+00  0.0000E+00  0.0000E+00  0.0000E+00  0.0000E+00  0.0000E+00  0.0000E+00  0.0000E+00
      0.770  0.0000E+00  0.0000E+00  0.0000E+00  0.0000E+00  0.0000E+00  0.0000E+00  0.0000E+00  0.0000E+00  0.0000E+00
      1.171  0.0000E+00  0.0000E+00  0.0000E+00  0.0000E+00  0.0000E+00  0.0000E+00  0.0000E+00  0.0000E+00  0.0000E+00
      1.572  0.0000E+00  0.0000E+00  0.0000E+00  0.0000E+00  0.0000E+00  0.0000E+00  0.0000E+00  0.0000E+00  0.0000E+00
      1.973  0.0000E+00  0.0000E+00  0.0000E+00  0.0000E+00  0.0000E+00  0.0000E+00  0.0000E+00  0.0000E+00  0.0000E+00
      2.373  0.0000E+00  0.0000E+00  0.0000E+00  0.0000E+00  0.0000E+00  0.0000E+00  0.0000E+00  0.0000E+00  0.0000E+00
      2.774  0.9810E-03  0.1227E-05  0.1227E-05  0.1227E-05  0.6890E-07  0.6890E-07  0.7494E-24  0.6890E-07  0.7494E-24
      3.175  0.1614E-01  0.6258E-04  0.6258E-04  0.6258E-04  0.6133E-05  0.6133E-05  0.4755E-05  0.6133E-05  0.4755E-05
      3.576  0.1292E-01  0.1004E-03  0.1004E-03  0.1004E-03  0.3370E-04  0.3370E-04  0.4582E-05  0.3370E-04  0.4582E-05
      3.977  0.3950E-01  0.5072E-03  0.5072E-03  0.5072E-03  0.2119E-03  0.2119E-03  0.1176E-03  0.2119E-03  0.1176E-03
      4.377  0.1406E-01  0.2349E-03  0.2349E-03  0.2349E-03  0.2674E-03  0.2674E-03  0.3362E-04  0.2674E-03  0.3362E-04
      4.778  0.5526E-01  0.1208E-02  0.1208E-02  0.1208E-02  0.1103E-02  0.1103E-02  0.7119E-03  0.1103E-02  0.7119E-03
      5.179  0.4632E-01  0.1234E-02  0.1234E-02  0.1234E-02  0.2789E-02  0.2789E-02  0.4815E-03  0.2789E-02  0.4815E-03
      5.580  0.4581E-01  0.1426E-02  0.1426E-02  0.1426E-02  0.5137E-02  0.5137E-02  0.2749E-02  0.5137E-02  0.2749E-02
      5.981  0.1128E+00  0.3033E-02  0.3033E-02  0.3033E-02  0.4796E-01  0.4796E-01  0.1327E-01  0.4796E-01  0.1327E-01
      6.381  0.1165E+00  0.4073E-02  0.4073E-02  0.4073E-02  0.6224E-01  0.6224E-01  0.8340E-01  0.6224E-01  0.8340E-01
      6.782  0.1121E+00  0.5305E-02  0.5305E-02  0.5305E-02  0.1392E+00  0.1392E+00  0.1262E+00  0.1392E+00  0.1262E+00
      7.183  0.8228E-01  0.5883E-02  0.5883E-02  0.5883E-02  0.1705E+00  0.1705E+00  0.1242E+00  0.1705E+00  0.1242E+00
      7.584  0.4095E-01  0.5491E-02  0.5491E-02  0.5491E-02  0.1379E+00  0.1379E+00  0.9640E-01  0.1379E+00  0.9640E-01
      7.985  0.1211E-01  0.5420E-02  0.5420E-02  0.5420E-02  0.1229E+00  0.1229E+00  0.8438E-01  0.1229E+00  0.8438E-01
      8.385  0.1117E-01  0.9240E-02  0.9240E-02  0.9240E-02  0.1673E+00  0.1673E+00  0.1238E+00  0.1673E+00  0.1238E+00
      8.786  0.9818E-02  0.8595E-02  0.8595E-02  0.8595E-02  0.1657E+00  0.1657E+00  0.1816E+00  0.1657E+00  0.1816E+00
      9.187  0.1539E-01  0.7300E-02  0.7300E-02  0.7300E-02  0.1698E+00  0.1698E+00  0.1308E+00  0.1698E+00  0.1308E+00
      9.588  0.2688E-01  0.1146E-01  0.1146E-01  0.1146E-01  0.2202E+00  0.2202E+00  0.1639E+00  0.2202E+00  0.1639E+00
      9.989  0.2191E-01  0.1344E-01  0.1344E-01  0.1344E-01  0.2637E+00  0.2637E+00  0.1944E+00  0.2637E+00  0.1944E+00
     10.390  0.1898E-01  0.8610E-02  0.8610E-02  0.8610E-02  0.2780E+00  0.2780E+00  0.1962E+00  0.2780E+00  0.1962E+00
     10.790  0.1115E-01  0.9404E-02  0.9404E-02  0.9404E-02  0.1630E+00  0.1630E+00  0.1536E+00  0.1630E+00  0.1536E+00
     11.191  0.1274E-01  0.8419E-02  0.8419E-02  0.8419E-02  0.1230E+00  0.1230E+00  0.1918E+00  0.1230E+00  0.1918E+00
     11.592  0.7408E-02  0.5129E-02  0.5129E-02  0.5129E-02  0.9403E-01  0.9403E-01  0.2755E+00  0.9403E-01  0.2755E+00
     11.993  0.1205E-01  0.7184E-02  0.7184E-02  0.7184E-02  0.9844E-01  0.9844E-01  0.3584E+00  0.9844E-01  0.3584E+00
     12.394  0.1316E-01  0.6047E-02  0.6047E-02  0.6047E-02  0.1336E+00  0.1336E+00  0.2918E+00  0.1336E+00  0.2918E+00
     12.794  0.1492E-02  0.4326E-02  0.4326E-02  0.4326E-02  0.5907E-01  0.5907E-01  0.1487E+00  0.5907E-01  0.1487E+00
     13.195  0.8042E-02  0.3488E-02  0.3488E-02  0.3488E-02  0.1664E+00  0.1664E+00  0.2523E+00  0.1664E+00  0.2523E+00
     13.596  0.2778E-02  0.2078E-02  0.2078E-02  0.2078E-02  0.1512E+00  0.1512E+00  0.1404E+00  0.1512E+00  0.1404E+00
     13.997  0.6240E-02  0.2617E-02  0.2617E-02  0.2617E-02  0.2684E+00  0.2684E+00  0.2495E+00  0.2684E+00  0.2495E+00
     14.398  0.1378E-01  0.3683E-02  0.3683E-02  0.3683E-02  0.3235E+00  0.3235E+00  0.1646E+00  0.3235E+00  0.1646E+00
     14.798  0.4499E-02  0.1221E-02  0.1221E-02  0.1221E-02  0.1043E+00  0.1043E+00  0.2509E-01  0.1043E+00  0.2509E-01
     15.199  0.9710E-02  0.2782E-02  0.2782E-02  0.2782E-02  0.2826E-01  0.2826E-01  0.2710E-01  0.2826E-01  0.2710E-01
     15.600  0.2103E-01  0.5858E-02  0.5858E-02  0.5858E-02  0.5164E-01  0.5164E-01  0.4090E-01  0.5164E-01  0.4090E-01
     16.001  0.7765E-02  0.3440E-02  0.3440E-02  0.3440E-02  0.1835E-01  0.1835E-01  0.1497E-01  0.1835E-01  0.1497E-01
     16.402  0.3031E-01  0.7035E-02  0.7035E-02  0.7035E-02  0.4713E-01  0.4713E-01  0.3456E-01  0.4713E-01  0.3456E-01
     16.802  0.1657E-01  0.8997E-02  0.8997E-02  0.8997E-02  0.3355E-01  0.3355E-01  0.2159E-01  0.3355E-01  0.2159E-01
     17.203  0.3010E-01  0.4834E-02  0.4834E-02  0.4834E-02  0.2926E-01  0.2926E-01  0.2146E-01  0.2926E-01  0.2146E-01
     17.604  0.1414E-01  0.6246E-02  0.6246E-02  0.6246E-02  0.2103E-01  0.2103E-01  0.7129E-02  0.2103E-01  0.7129E-02