    1    1  100    1
  0.1371139E+02  0.2686574E-09  0.2686574E-09  0.2686574E-09  0.5000000E-15
  1.000000000000000E-004
  CAR 
 Pt-fcc                                  
     16    110     24
 
  0.5000000E-01  0.5000000E-01  0.5000000E-01  0.2000000E-02
      1        -38.808462   1.000000
      2        -38.794276   1.000000
      3        -38.794276   1.000000
      4          2.800938   1.000000
      5          9.563724   1.000000
      6          9.665361   1.000000
      7          9.665361   1.000000
      8         12.120875   1.000000
      9         12.120875   1.000000
     10         28.530815   0.000000
     11         33.292835   0.000000
     12         34.033775   0.000000
     13         34.033775   0.000000
     14         40.250479   0.000000
     15         46.672163   0.000000
     16         47.439240   0.000000
     17         47.439240   0.000000
     18         51.424720   0.000000
     19         51.424720   0.000000
     20         52.414542   0.000000
     21         54.351077   0.000000
     22         57.886892   0.000000
     23         57.886892   0.000000
     24         64.894071   0.000000
 
  0.1500000E+00  0.5000000E-01  0.5000000E-01  0.6000000E-02
      1        -38.889072   1.000000
      2        -38.817562   1.000000
      3        -38.800394   1.000000
      4          3.376318   1.000000
      5          9.286264   1.000000
      6          9.873959   1.000000
      7          9.920953   1.000000
      8         11.844772   1.000000
      9         12.183736   1.000000
     10         29.432732   0.000000
     11         31.583529   0.000000
     12         34.310604   0.000000
     13         35.292343   0.000000
     14         41.641971   0.000000
     15         43.998411   0.000000
     16         44.599330   0.000000
     17         46.356816   0.000000
     18         49.464227   0.000000
     19         52.860680   0.000000
     20         54.352504   0.000000
     21         55.242879   0.000000
     22         56.513703   0.000000
     23         59.075334   0.000000
     24         65.646186   0.000000
 
  0.2500000E+00  0.5000000E-01  0.5000000E-01  0.6000000E-02
      1        -39.068132   1.000000
      2        -38.848881   1.000000
      3        -38.823485   1.000000
      4          4.580088   1.000000
      5          9.029942   1.000000
      6         10.090222   1.000000
      7         10.135602   1.000000
      8         11.814544   1.000000
      9         12.487695   1.000000
     10         28.841563   0.000000
     11         30.748647   0.000000
     12         35.809433   0.000000
     13         37.697696   0.000000
     14         38.027999   0.000000
     15         41.433544   0.000000
     16         41.948463   0.000000
     17         48.182887   0.000000
     18         49.760005   0.000000
     19         53.381496   0.000000
     20         54.342222   0.000000
     21         55.120712   0.000000
     22         58.200856   0.000000
     23         59.618586   0.000000
     24         65.984378   0.000000
 
  0.3500000E+00  0.5000000E-01  0.5000000E-01  0.6000000E-02
      1        -39.268464   1.000000
      2        -38.879195   1.000000
      3        -38.854358   1.000000
      4          5.562576   1.000000
      5          9.715084   1.000000
      6          9.907945   1.000000
      7          9.943670   1.000000
      8         12.595872   1.000000
      9         13.370343   1.000000
     10         25.688916   0.000000
     11         29.868747   0.000000
     12         35.490810   0.000000
     13         37.782418   0.000000
     14         38.562343   0.000000
     15         40.754950   0.000000
     16         41.094742   0.000000
     17         50.067554   0.000000
     18         52.458123   0.000000
     19         54.320550   0.000000
     20         54.363900   0.000000
     21         55.338561   0.000000
     22         58.451815   0.000000
     23         60.270755   0.000000
     24         65.042844   0.000000
 
  0.4500000E+00  0.5000000E-01  0.5000000E-01  0.6000000E-02
      1        -39.415338   1.000000
      2        -38.898137   1.000000
      3        -38.879997   1.000000
      4          5.749300   1.000000
      5          9.558980   1.000000
      6          9.676603   1.000000
      7         11.687535   1.000000
      8         13.614962   1.000000
      9         14.384035   0.000000
     10         22.174910   0.000000
     11         28.497554   0.000000
     12         33.701785   0.000000
     13         34.756249   0.000000
     14         42.003360   0.000000
     15         43.418768   0.000000
     16         43.720731   0.000000
     17         50.478249   0.000000
     18         52.113710   0.000000
     19         53.130282   0.000000
     20         54.346940   0.000000
     21         57.735646   0.000000
     22         60.602057   0.000000
     23         60.617162   0.000000
     24         62.109296   0.000000
 
 -0.4500000E+00  0.5000000E-01  0.5000000E-01  0.6000000E-02
      1        -39.456439   1.000000
      2        -38.898496   1.000000
      3        -38.892002   1.000000
      4          5.735872   1.000000
      5          9.452079   1.000000
      6          9.615490   1.000000
      7         12.489950   1.000000
      8         14.123602   0.094110
      9         14.784210   0.000000
     10         20.695692   0.000000
     11         28.145502   0.000000
     12         33.519014   0.000000
     13         33.535544   0.000000
     14         43.692362   0.000000
     15         43.969101   0.000000
     16         45.421113   0.000000
     17         50.526049   0.000000
     18         51.141533   0.000000
     19         51.841356   0.000000
     20         54.343898   0.000000
     21         58.800767   0.000000
     22         59.367700   0.000000
     23         61.971325   0.000000
     24         62.588214   0.000000
 
 -0.3500000E+00  0.5000000E-01  0.5000000E-01  0.6000000E-02
      1        -39.376593   1.000000
      2        -38.885629   1.000000
      3        -38.880869   1.000000
      4          5.736025   1.000000
      5          9.605615   1.000000
      6          9.790559   1.000000
      7         10.970982   1.000000
      8         13.652655   1.000000
      9         13.765681   1.000000
     10         23.290513   0.000000
     11         28.851439   0.000000
     12         34.402674   0.000000
     13         35.293513   0.000000
     14         41.629997   0.000000
     15         41.762932   0.000000
     16         42.964093   0.000000
     17         49.862827   0.000000
     18         53.208760   0.000000
     19         53.760027   0.000000
     20         54.348030   0.000000
     21         57.706600   0.000000
     22         58.491515   0.000000
     23         60.836537   0.000000
     24         62.939621   0.000000
 
 -0.2500000E+00  0.5000000E-01  0.5000000E-01  0.6000000E-02
      1        -39.204451   1.000000
      2        -38.863051   1.000000
      3        -38.850906   1.000000
      4          5.328456   1.000000
      5          9.315837   1.000000
      6          9.944034   1.000000
      7         10.068653   1.000000
      8         12.414331   1.000000
      9         12.912104   1.000000
     10         26.818785   0.000000
     11         30.408660   0.000000
     12         36.334470   0.000000
     13         37.359290   0.000000
     14         39.366419   0.000000
     15         39.611523   0.000000
     16         40.543512   0.000000
     17         49.636494   0.000000
     18         51.986515   0.000000
     19         53.539580   0.000000
     20         54.341413   0.000000
     21         55.977615   0.000000
     22         57.098627   0.000000
     23         60.800572   0.000000
     24         66.264686   0.000000
 
 -0.1500000E+00  0.5000000E-01  0.5000000E-01  0.6000000E-02
      1        -39.001352   1.000000
      2        -38.832343   1.000000
      3        -38.820723   1.000000
      4          4.145725   1.000000
      5          9.042674   1.000000
      6         10.083626   1.000000
      7         10.111403   1.000000
      8         11.749614   1.000000
      9         12.308355   1.000000
     10         29.798647   0.000000
     11         30.453319   0.000000
     12         35.461110   0.000000
     13         36.329021   0.000000
     14         39.659130   0.000000
     15         41.752442   0.000000
     16         43.649993   0.000000
     17         46.623046   0.000000
     18         49.529789   0.000000
     19         53.599898   0.000000
     20         54.345230   0.000000
     21         55.667287   0.000000
     22         56.450816   0.000000
     23         60.020614   0.000000
     24         65.876573   0.000000
 
 -0.5000000E-01  0.5000000E-01  0.5000000E-01  0.6000000E-02
      1        -38.844649   1.000000
      2        -38.806396   1.000000
      3        -38.802085   1.000000
      4          3.094860   1.000000
      5          9.375767   1.000000
      6          9.808098   1.000000
      7          9.817298   1.000000
      8         11.892874   1.000000
      9         12.211240   1.000000
     10         29.008881   0.000000
     11         32.527048   0.000000
     12         34.147691   0.000000
     13         34.397686   0.000000
     14         41.653900   0.000000
     15         44.826752   0.000000
     16         45.220057   0.000000
     17         47.534405   0.000000
     18         49.159028   0.000000
     19         53.473502   0.000000
     20         54.025529   0.000000
     21         54.356529   0.000000
     22         56.265451   0.000000
     23         59.093638   0.000000
     24         65.465878   0.000000
 
  0.1500000E+00  0.1500000E+00  0.5000000E-01  0.6000000E-02
      1        -38.907062   1.000000
      2        -38.829668   1.000000
      3        -38.824856   1.000000
      4          3.660510   1.000000
      5          9.011009   1.000000
      6         10.109043   1.000000
      7         10.117429   1.000000
      8         11.494142   1.000000
      9         12.385990   1.000000
     10         29.911877   0.000000
     11         31.850445   0.000000
     12         34.234919   0.000000
     13         34.586021   0.000000
     14         42.242481   0.000000
     15         43.060430   0.000000
     16         44.595696   0.000000
     17         45.793873   0.000000
     18         48.074345   0.000000
     19         53.759037   0.000000
     20         54.346366   0.000000
     21         55.669327   0.000000
     22         55.746494   0.000000
     23         60.087997   0.000000
     24         66.880627   0.000000
 
  0.2500000E+00  0.1500000E+00  0.5000000E-01  0.1200000E-01
      1        -39.032345   1.000000
      2        -38.874101   1.000000
      3        -38.842749   1.000000
      4          4.669128   1.000000
      5          8.595078   1.000000
      6         10.229680   1.000000
      7         10.539842   1.000000
      8         11.361880   1.000000
      9         12.718148   1.000000
     10         30.224154   0.000000
     11         31.256431   0.000000
     12         34.068173   0.000000
     13         35.459559   0.000000
     14         39.360055   0.000000
     15         41.808473   0.000000
     16         43.631992   0.000000
     17         47.239001   0.000000
     18         48.262904   0.000000
     19         52.468185   0.000000
     20         54.333766   0.000000
     21         54.816946   0.000000
     22         58.676640   0.000000
     23         61.571377   0.000000
     24         66.862223   0.000000
 
  0.3500000E+00  0.1500000E+00  0.5000000E-01  0.1200000E-01
      1        -39.207433   1.000000
      2        -38.914285   1.000000
      3        -38.871725   1.000000
      4          5.846346   1.000000
      5          8.665340   1.000000
      6          9.719541   1.000000
      7         10.546724   1.000000
      8         12.361152   1.000000
      9         13.580280   1.000000
     10         27.194651   0.000000
     11         31.013851   0.000000
     12         33.693768   0.000000
     13         35.533226   0.000000
     14         39.941643   0.000000
     15         40.925752   0.000000
     16         42.831266   0.000000
     17         46.490930   0.000000
     18         51.994699   0.000000
     19         53.963715   0.000000
     20         54.327568   0.000000
     21         54.568372   0.000000
     22         58.607954   0.000000
     23         63.022932   0.000000
     24         64.684754   0.000000
 
  0.4500000E+00  0.1500000E+00  0.5000000E-01  0.1200000E-01
      1        -39.357975   1.000000
      2        -38.943649   1.000000
      3        -38.901139   1.000000
      4          6.238599   1.000000
      5          9.221103   1.000000
      6          9.909510   1.000000
      7         10.293159   1.000000
      8         13.658548   1.000000
      9         14.948987   0.000000
     10         23.349509   0.000000
     11         29.622266   0.000000
     12         32.526887   0.000000
     13         34.855053   0.000000
     14         40.737711   0.000000
     15         43.417454   0.000000
     16         44.375887   0.000000
     17         46.852061   0.000000
     18         53.468034   0.000000
     19         53.852169   0.000000
     20         54.347768   0.000000
     21         56.042706   0.000000
     22         59.423455   0.000000
     23         61.055379   0.000000
     24         62.956733   0.000000
 
 -0.4500000E+00  0.1500000E+00  0.5000000E-01  0.1200000E-01
      1        -39.426536   1.000000
      2        -38.961914   1.000000
      3        -38.910580   1.000000
      4          6.240970   1.000000
      5          9.025992   1.000000
      6         10.067710   1.000000
      7         11.105830   1.000000
      8         14.029880   0.909058
      9         16.633140   0.000000
     10         20.484433   0.000000
     11         29.035047   0.000000
     12         32.181855   0.000000
     13         33.282134   0.000000
     14         42.753773   0.000000
     15         43.580052   0.000000
     16         46.621643   0.000000
     17         49.124064   0.000000
     18         51.383215   0.000000
     19         53.403743   0.000000
     20         54.350002   0.000000
     21         56.058754   0.000000
     22         57.533787   0.000000
     23         61.958003   0.000000
     24         63.947197   0.000000
 
 -0.3500000E+00  0.1500000E+00  0.5000000E-01  0.1200000E-01
      1        -39.389455   1.000000
      2        -38.965090   1.000000
      3        -38.894494   1.000000
      4          6.279896   1.000000
      5          9.161019   1.000000
      6         10.100613   1.000000
      7         10.593339   1.000000
      8         13.442801   1.000000
      9         15.794833   0.000000
     10         22.242625   0.000000
     11         29.317380   0.000000
     12         31.903634   0.000000
     13         34.788938   0.000000
     14         40.718330   0.000000
     15         43.685060   0.000000
     16         45.571034   0.000000
     17         48.765846   0.000000
     18         52.831410   0.000000
     19         53.823091   0.000000
     20         54.346537   0.000000
     21         54.577431   0.000000
     22         59.292382   0.000000
     23         61.727239   0.000000
     24         62.772799   0.000000
 
 -0.2500000E+00  0.1500000E+00  0.5000000E-01  0.1200000E-01
      1        -39.261168   1.000000
      2        -38.944374   1.000000
      3        -38.863538   1.000000
      4          6.122244   1.000000
      5          9.074577   1.000000
      6          9.590305   1.000000
      7         10.401103   1.000000
      8         12.269282   1.000000
      9         14.341225   0.000000
     10         25.966325   0.000000
     11         30.422031   0.000000
     12         32.877129   0.000000
     13         36.492782   0.000000
     14         38.748854   0.000000
     15         42.360834   0.000000
     16         43.778878   0.000000
     17         46.692409   0.000000
     18         52.304160   0.000000
     19         52.961001   0.000000
     20         54.346390   0.000000
     21         56.353056   0.000000
     22         59.055029   0.000000
     23         62.287816   0.000000
     24         63.376332   0.000000
 
 -0.1500000E+00  0.1500000E+00  0.5000000E-01  0.1200000E-01
      1        -39.092820   1.000000
      2        -38.900174   1.000000
      3        -38.832495   1.000000
      4          5.100326   1.000000
      5          8.648997   1.000000
      6         10.046709   1.000000
      7         10.575097   1.000000
      8         11.364382   1.000000
      9         13.096631   1.000000
     10         29.087581   0.000000
     11         31.355925   0.000000
     12         34.165404   0.000000
     13         35.440207   0.000000
     14         39.053950   0.000000
     15         42.489197   0.000000
     16         43.613800   0.000000
     17         46.125648   0.000000
     18         49.339455   0.000000
     19         52.697670   0.000000
     20         54.106256   0.000000
     21         54.345994   0.000000
     22         60.595603   0.000000
     23         61.724267   0.000000
     24         65.652323   0.000000
 
 -0.5000000E-01  0.1500000E+00  0.5000000E-01  0.1200000E-01
      1        -38.954189   1.000000
      2        -38.841440   1.000000
      3        -38.813890   1.000000
      4          3.918126   1.000000
      5          9.004509   1.000000
      6         10.106624   1.000000
      7         10.130288   1.000000
      8         11.559764   1.000000
      9         12.381226   1.000000
     10         30.222524   0.000000
     11         30.783954   0.000000
     12         34.362749   0.000000
     13         35.956405   0.000000
     14         40.146583   0.000000
     15         42.991918   0.000000
     16         45.357435   0.000000
     17         45.908351   0.000000
     18         47.723562   0.000000
     19         53.709389   0.000000
     20         54.345800   0.000000
     21         54.600859   0.000000
     22         57.387809   0.000000
     23         60.309290   0.000000
     24         66.450797   0.000000
 
  0.2500000E+00  0.2500000E+00  0.5000000E-01  0.6000000E-02
      1        -39.081723   1.000000
      2        -38.899096   1.000000
      3        -38.897415   1.000000
      4          5.317722   1.000000
      5          8.038036   1.000000
      6         10.403164   1.000000
      7         11.128174   1.000000
      8         11.397484   1.000000
      9         12.936005   1.000000
     10         31.128421   0.000000
     11         32.495275   0.000000
     12         32.925304   0.000000
     13         33.467103   0.000000
     14         38.654301   0.000000
     15         41.372684   0.000000
     16         41.717210   0.000000
     17         48.909553   0.000000
     18         49.485954   0.000000
     19         50.751512   0.000000
     20         54.338846   0.000000
     21         57.440258   0.000000
     22         58.371797   0.000000
     23         60.070626   0.000000
     24         69.854865   0.000000
 
  0.3500000E+00  0.2500000E+00  0.5000000E-01  0.1200000E-01
      1        -39.197978   1.000000
      2        -38.953749   1.000000
      3        -38.924030   1.000000
      4          6.235579   1.000000
      5          7.688205   1.000000
      6          9.955776   1.000000
      7         11.666877   1.000000
      8         12.381284   1.000000
      9         13.635572   1.000000
     10         28.937181   0.000000
     11         31.091210   0.000000
     12         32.044732   0.000000
     13         34.544258   0.000000
     14         37.753931   0.000000
     15         41.575147   0.000000
     16         42.935731   0.000000
     17         48.432935   0.000000
     18         48.699485   0.000000
     19         53.683089   0.000000
     20         54.347848   0.000000
     21         57.054914   0.000000
     22         59.193340   0.000000
     23         60.964061   0.000000
     24         67.600627   0.000000
 
  0.4500000E+00  0.2500000E+00  0.5000000E-01  0.1200000E-01
      1        -39.309523   1.000000
      2        -39.008813   1.000000
      3        -38.949847   1.000000
      4          6.759057   1.000000
      5          8.026416   1.000000
      6          9.561585   1.000000
      7         11.448030   1.000000
      8         13.825508   1.000000
      9         15.297532   0.000000
     10         24.723964   0.000000
     11         30.310605   0.000000
     12         30.401851   0.000000
     13         34.616820   0.000000
     14         39.873346   0.000000
     15         42.393645   0.000000
     16         44.619220   0.000000
     17         47.623301   0.000000
     18         50.107430   0.000000
     19         53.538538   0.000000
     20         54.349069   0.000000
     21         57.340808   0.000000
     22         60.660345   0.000000
     23         61.356615   0.000000
     24         64.828521   0.000000
 
 -0.4500000E+00  0.2500000E+00  0.5000000E-01  0.1200000E-01
      1        -39.364623   1.000000
      2        -39.064880   1.000000
      3        -38.953187   1.000000
      4          6.923475   1.000000
      5          8.393394   1.000000
      6          9.821821   1.000000
      7         11.124081   1.000000
      8         14.081654   0.448518
      9         18.114001   0.000000
     10         20.910182   0.000000
     11         29.062436   0.000000
     12         30.633515   0.000000
     13         33.373314   0.000000
     14         41.676712   0.000000
     15         43.811971   0.000000
     16         45.198285   0.000000
     17         48.329894   0.000000
     18         52.145195   0.000000
     19         53.052913   0.000000
     20         54.349262   0.000000
     21         56.317402   0.000000
     22         58.841318   0.000000
     23         61.868970   0.000000
     24         64.400027   0.000000
 
 -0.3500000E+00  0.2500000E+00  0.5000000E-01  0.1200000E-01
      1        -39.348527   1.000000
      2        -39.096655   1.000000
      3        -38.931002   1.000000
      4          7.192236   1.000000
      5          8.504850   1.000000
      6          9.808761   1.000000
      7         10.958356   1.000000
      8         13.374376   1.000000
      9         17.903145   0.000000
     10         21.822041   0.000000
     11         28.060954   0.000000
     12         31.390359   0.000000
     13         33.784540   0.000000
     14         40.464073   0.000000
     15         42.900631   0.000000
     16         46.743790   0.000000
     17         50.781795   0.000000
     18         51.816628   0.000000
     19         54.254867   0.000000
     20         54.357157   0.000000
     21         54.718220   0.000000
     22         56.698420   0.000000
     23         61.307001   0.000000
     24         63.631291   0.000000
 
 -0.2500000E+00  0.2500000E+00  0.5000000E-01  0.1200000E-01
      1        -39.285448   1.000000
      2        -39.070064   1.000000
      3        -38.894628   1.000000
      4          7.339373   1.000000
      5          8.688650   1.000000
      6          8.974375   1.000000
      7         11.074779   1.000000
      8         12.218603   1.000000
      9         16.177636   0.000000
     10         25.142669   0.000000
     11         28.364399   0.000000
     12         31.691612   0.000000
     13         36.524775   0.000000
     14         37.369639   0.000000
     15         43.109750   0.000000
     16         47.324981   0.000000
     17         47.859739   0.000000
     18         49.810839   0.000000
     19         53.378310   0.000000
     20         54.352368   0.000000
     21         57.062505   0.000000
     22         60.303063   0.000000
     23         61.039423   0.000000
     24         62.280684   0.000000
 
 -0.1500000E+00  0.2500000E+00  0.5000000E-01  0.1200000E-01
      1        -39.214006   1.000000
      2        -38.978271   1.000000
      3        -38.859641   1.000000
      4          6.366631   1.000000
      5          8.510452   1.000000
      6          9.555172   1.000000
      7         10.908218   1.000000
      8         11.570773   1.000000
      9         14.494647   0.000000
     10         27.204186   0.000000
     11         30.558373   0.000000
     12         32.539591   0.000000
     13         35.255991   0.000000
     14         39.301752   0.000000
     15         43.116843   0.000000
     16         44.473490   0.000000
     17         45.524676   0.000000
     18         50.256676   0.000000
     19         52.718434   0.000000
     20         54.351463   0.000000
     21         56.279080   0.000000
     22         60.724753   0.000000
     23         62.950855   0.000000
     24         63.493476   0.000000
 
 -0.5000000E-01  0.2500000E+00  0.5000000E-01  0.1200000E-01
      1        -39.139563   1.000000
      2        -38.877834   1.000000
      3        -38.840081   1.000000
      4          5.175174   1.000000
      5          8.892247   1.000000
      6         10.013634   1.000000
      7         10.278885   1.000000
      8         11.878944   1.000000
      9         12.982434   1.000000
     10         28.030540   0.000000
     11         30.988690   0.000000
     12         35.309432   0.000000
     13         36.304851   0.000000
     14         39.303670   0.000000
     15         40.587187   0.000000
     16         42.097349   0.000000
     17         47.986748   0.000000
     18         50.465335   0.000000
     19         53.922106   0.000000
     20         54.236163   0.000000
     21         54.365637   0.000000
     22         58.491493   0.000000
     23         61.638263   0.000000
     24         65.956339   0.000000
 
  0.3500000E+00  0.3500000E+00  0.5000000E-01  0.6000000E-02
      1        -39.263716   1.000000
      2        -38.978124   1.000000
      3        -38.973723   1.000000
      4          6.303842   1.000000
      5          7.116983   1.000000
      6         11.068796   1.000000
      7         12.530489   1.000000
      8         13.018891   1.000000
      9         13.615693   1.000000
     10         28.859691   0.000000
     11         29.575041   0.000000
     12         30.716950   0.000000
     13         34.633745   0.000000
     14         35.936020   0.000000
     15         43.486129   0.000000
     16         43.978342   0.000000
     17         46.268872   0.000000
     18         50.479788   0.000000
     19         53.573779   0.000000
     20         54.358502   0.000000
     21         59.593126   0.000000
     22         59.985186   0.000000
     23         60.327572   0.000000
     24         65.323521   0.000000
 
  0.4500000E+00  0.3500000E+00  0.5000000E-01  0.1200000E-01
      1        -39.334627   1.000000
      2        -39.029311   1.000000
      3        -38.999698   1.000000
      4          6.430513   1.000000
      5          6.957967   1.000000
      6         11.218301   1.000000
      7         12.996276   1.000000
      8         13.846622   1.000000
      9         15.225549   0.000000
     10         25.898185   0.000000
     11         27.905904   0.000000
     12         29.003823   0.000000
     13         35.584986   0.000000
     14         37.463932   0.000000
     15         43.191084   0.000000
     16         46.103558   0.000000
     17         47.532615   0.000000
     18         51.015167   0.000000
     19         52.141266   0.000000
     20         54.353145   0.000000
     21         58.165731   0.000000
     22         60.535111   0.000000
     23         62.064935   0.000000
     24         62.927159   0.000000
 
 -0.4500000E+00  0.3500000E+00  0.5000000E-01  0.1200000E-01
      1        -39.349580   1.000000
      2        -39.111080   1.000000
      3        -39.002158   1.000000
      4          6.658836   1.000000
      5          7.400821   1.000000
      6         10.728646   1.000000
      7         12.507089   1.000000
      8         14.247439   0.000001
      9         18.389978   0.000000
     10         22.142433   0.000000
     11         27.005140   0.000000
     12         28.512952   0.000000
     13         35.484095   0.000000
     14         40.292446   0.000000
     15         42.442633   0.000000
     16         45.759918   0.000000
     17         50.011869   0.000000
     18         51.706476   0.000000
     19         52.382813   0.000000
     20         54.348365   0.000000
     21         56.873045   0.000000
     22         58.991792   0.000000
     23         61.289156   0.000000
     24         62.548559   0.000000
 
 -0.3500000E+00  0.3500000E+00  0.5000000E-01  0.1200000E-01
      1        -39.289503   1.000000
      2        -39.208631   1.000000
      3        -38.977468   1.000000
      4          7.102953   1.000000
      5          8.122411   1.000000
      6          9.945069   1.000000
      7         11.961386   1.000000
      8         13.667912   1.000000
      9         19.418912   0.000000
     10         22.164683   0.000000
     11         25.226523   0.000000
     12         30.304942   0.000000
     13         34.569736   0.000000
     14         41.222017   0.000000
     15         43.221089   0.000000
     16         43.849193   0.000000
     17         51.762791   0.000000
     18         52.037153   0.000000
     19         54.340202   0.000000
     20         55.107974   0.000000
     21         56.139144   0.000000
     22         57.467805   0.000000
     23         60.117766   0.000000
     24         62.448138   0.000000
 
 -0.2500000E+00  0.3500000E+00  0.5000000E-01  0.1200000E-01
      1        -39.293709   1.000000
      2        -39.164664   1.000000
      3        -38.935458   1.000000
      4          7.578048   1.000000
      5          8.529976   1.000000
      6          9.197308   1.000000
      7         11.381983   1.000000