 vasp.6.3.2 27Jun22 (build Aug 12 2022 00:53:59) complex                        
  
 executed on               tv2STD date 2024.12.03  01:38:32
 running   24 mpi-ranks, with    1 threads/rank
 distrk:  each k-point on   24 cores,    1 groups
 distr:  one band on NCORE=   1 cores,   24 groups


--------------------------------------------------------------------------------------------------------


 INCAR:
   SYSTEM = Pt-fcc
   NWRITE = 2    write-flag
   ISTART = 0    job   : 0-new, 1-cont, 2-samecut
   ICHARG = 2    charge: 0-wave, 1-file, 2-atom, >10-const
   INIWAV = 1    electr: 0-lowe 1-rand  2-diag
   ENCUT = 425.0     energy cutoff in eV
   PREC = accurate      normal | accurate
   ADDGRID = .FALSE.  (use fine grid)
   NELM = 100     number of ELM steps
   EDIFF = 1E-06    energy stopping-criterion for ELM
   LREAL = .FALSE.      real-space projection (.FALSE., .TRUE., On, Auto)
   ALGO = Normal     Normal, Fast, Very_Fast
   LWAVE = .TRUE.
   LCHARG = .TRUE.
   NSW = 100       max number of geometry steps
   IBRION = 2     ionic relax: 0-MD, 1-quasi-Newton, 2-CG, 3-Damped MD
   EDIFFG = -0.02  force (eV/A) stopping-criterion for geometry steps
   ISIF = 2     (1:force\=y stress\=trace only ions\=y shape\=n volume\=n)
   ISYM = 1     (1-use symmetry, 0-no symmetry)
   ISMEAR = 0     (-1-Fermi, 1-Methfessel/Paxton)
   SIGMA = 0.05   broadening in eV
   LORBIT = 11

 POTCAR:    PAW_PBE Pt_pv 12Dec2005               
 POTCAR:    PAW_PBE Pt_pv 12Dec2005               
   SHA256 =  e5abf7e8cd8db70d0153315afc5ad66b6e3eeee29cc2d5b91b16730957c1d208 Pt_pv/POTCAR          
   COPYR  = (c) Copyright 12Dec2005 Georg Kresse                                                    
   COPYR  = This file is part of the software VASP. Any use, copying, and all other rights are regul
   COPYR  = If you do not have a valid VASP license, you may not use, copy or distribute this file. 
   VRHFIN =Pt: 5ps1d9                                                                               
   LEXCH  = PE                                                                                      
   EATOM  =  2428.2504 eV,  178.4714 Ry                                                             
                                                                                                    
   TITEL  = PAW_PBE Pt_pv 12Dec2005                                                                 
   LULTRA =        F    use ultrasoft PP ?                                                          
   IUNSCR =        1    unscreen: 0-lin 1-nonlin 2-no                                               
   RPACOR =    2.000    partial core radius                                                         
   POMASS =  195.080; ZVAL   =   16.000    mass and valenz                                          
   RCORE  =    2.200    outmost cutoff radius                                                       
   RWIGS  =    2.200; RWIGS  =    1.164    wigner-seitz radius (au A)                               
   ENMAX  =  294.607; ENMIN  =  220.955 eV                                                          
   ICORE  =        3    local potential                                                             
   LCOR   =        T    correct aug charges                                                         
   LPAW   =        T    paw PP                                                                      
   EAUG   =  527.014                                                                                
   DEXC   =    0.000                                                                                
   RMAX   =    2.247    core radius for proj-oper                                                   
   RAUG   =    1.300    factor for augmentation sphere                                              
   RDEP   =    2.279    radius for radial grids                                                     
   RDEPT  =    1.878    core radius for aug-charge                                                  
                                                                                                    
   Atomic configuration                                                                             
   16 entries                                                                                       
     n  l   j            E        occ.                                                              
     1  0  0.50    -78401.1885   2.0000                                                             
     2  0  0.50    -13770.7750   2.0000                                                             
     2  1  1.50    -11931.0468   6.0000                                                             
     3  0  0.50     -3234.7234   2.0000                                                             
     3  1  1.50     -2699.2216   6.0000                                                             
     3  2  2.50     -2119.5714  10.0000                                                             
     4  0  0.50      -695.1528   2.0000                                                             
     4  1  1.50      -519.6034   6.0000                                                             
     4  2  2.50      -306.6786  10.0000                                                             
     4  3  3.50       -70.1041  14.0000                                                             
     5  0  0.50      -101.7747   2.0000                                                             
     5  1  1.50       -55.9873   6.0000                                                             
     6  1  1.50        -6.8029   0.0000                                                             
     5  2  2.50        -6.1423   9.0000                                                             
     6  0  0.50        -5.6573   1.0000                                                             
     5  3  2.50        -1.3606   0.0000                                                             
   Description                                                                                      
     l       E           TYP  RCUT    TYP  RCUT                                                     
     1    -55.9873477     23  2.000                                                                 
     1     27.2116520     23  2.000                                                                 
     2     -6.1423404     23  2.200                                                                 
     2     -4.6754623     23  2.200                                                                 
     0     -5.6573207     23  2.200                                                                 
     0     47.6203910     23  2.200                                                                 
     3      6.8029130     23  2.200                                                                 
  local pseudopotential read in
  partial core-charges read in
  partial kinetic energy density read in
  atomic valenz-charges read in
  non local Contribution for L=           1  read in
    real space projection operators read in
  non local Contribution for L=           1  read in
    real space projection operators read in
  non local Contribution for L=           2  read in
    real space projection operators read in
  non local Contribution for L=           2  read in
    real space projection operators read in
  non local Contribution for L=           0  read in
    real space projection operators read in
  non local Contribution for L=           0  read in
    real space projection operators read in
    PAW grid and wavefunctions read in
 
   number of l-projection  operators is LMAX  =           6
   number of lm-projection operators is LMMAX =          18
 
  PAW_PBE Pt_pv 12Dec2005               :
 energy of atom  1       EATOM=-2428.2504
 kinetic energy error for atom=    0.0554 (will be added to EATOM!!)
 
 
 POSCAR: Pt
  positions in cartesian coordinates
  No initial velocities read in
 exchange correlation table for  LEXCH =        8
   RHO(1)=    0.500       N(1)  =     2000
   RHO(2)=  100.500       N(2)  =     4000
 


--------------------------------------------------------------------------------------------------------


 ion  position               nearest neighbor table
   1  0.000  0.000  0.000-
 
  LATTYP: Found a face centered cubic cell.
 ALAT       =     3.7993893685
  
  Lattice vectors:
  
 A1 = (   0.0000000000,   1.8996946843,   1.8996946843)
 A2 = (   1.8996946843,   0.0000000000,   1.8996946843)
 A3 = (   1.8996946843,   1.8996946843,   0.0000000000)


Analysis of symmetry for initial positions (statically):
=====================================================================
 Subroutine PRICEL returns:
 Original cell was already a primitive cell.
 

 Routine SETGRP: Setting up the symmetry group for a 
 face centered cubic supercell.


 Subroutine GETGRP returns: Found 48 space group operations
 (whereof 48 operations were pure point group operations)
 out of a pool of 48 trial point group operations.


The static configuration has the point symmetry O_h .


Analysis of symmetry for dynamics (positions and initial velocities):
=====================================================================
 Subroutine PRICEL returns:
 Original cell was already a primitive cell.
 

 Routine SETGRP: Setting up the symmetry group for a 
 face centered cubic supercell.


 Subroutine GETGRP returns: Found 48 space group operations
 (whereof 48 operations were pure point group operations)
 out of a pool of 48 trial point group operations.


The dynamic configuration has the point symmetry O_h .


 Subroutine INISYM returns: Found 48 space group operations
 (whereof 48 operations are pure point group operations),
 and found     1 'primitive' translations


----------------------------------------------------------------------------------------

                                     Primitive cell                                     

  volume of cell :      13.7114

  direct lattice vectors                    reciprocal lattice vectors
     0.000000000  1.899694684  1.899694684    -0.263200189  0.263200189  0.263200189
     1.899694684  0.000000000  1.899694684     0.263200189 -0.263200189  0.263200189
     1.899694684  1.899694684  0.000000000     0.263200189  0.263200189 -0.263200189

  length of vectors
     2.686573987  2.686573987  2.686573987     0.455876100  0.455876100  0.455876100

  position of ions in fractional coordinates (direct lattice)
     0.000000000  0.000000000  0.000000000

  ion indices of the primitive-cell ions
   primitive index   ion index
                 1           1

----------------------------------------------------------------------------------------

 
 
 KPOINTS: Automatic mesh                          

Automatic generation of k-mesh.
 Grid dimensions read from file:
 generate k-points for:   10   10   10

 Generating k-lattice:

  Cartesian coordinates                     Fractional coordinates (reciprocal lattice)
    -0.026320019  0.026320019  0.026320019     0.100000000  0.000000000  0.000000000
     0.026320019 -0.026320019  0.026320019     0.000000000  0.100000000 -0.000000000
     0.026320019  0.026320019 -0.026320019     0.000000000 -0.000000000  0.100000000

  Length of vectors
     0.045587610  0.045587610  0.045587610

  Shift w.r.t. Gamma in fractional coordinates (k-lattice)
     0.500000000  0.500000000  0.500000000

 
 Subroutine IBZKPT returns following result:
 ===========================================
 
 Found    110 irreducible k-points:
 
 Following reciprocal coordinates:
            Coordinates               Weight
  0.050000  0.050000  0.050000      8.000000
  0.150000  0.050000  0.050000     24.000000
  0.250000  0.050000  0.050000     24.000000
  0.350000  0.050000  0.050000     24.000000
  0.450000  0.050000  0.050000     24.000000
 -0.450000  0.050000  0.050000     24.000000
 -0.350000  0.050000  0.050000     24.000000
 -0.250000  0.050000  0.050000     24.000000
 -0.150000  0.050000  0.050000     24.000000
 -0.050000  0.050000  0.050000     24.000000
  0.150000  0.150000  0.050000     24.000000
  0.250000  0.150000  0.050000     48.000000
  0.350000  0.150000  0.050000     48.000000
  0.450000  0.150000  0.050000     48.000000
 -0.450000  0.150000  0.050000     48.000000
 -0.350000  0.150000  0.050000     48.000000
 -0.250000  0.150000  0.050000     48.000000
 -0.150000  0.150000  0.050000     48.000000
 -0.050000  0.150000  0.050000     48.000000
  0.250000  0.250000  0.050000     24.000000
  0.350000  0.250000  0.050000     48.000000
  0.450000  0.250000  0.050000     48.000000
 -0.450000  0.250000  0.050000     48.000000
 -0.350000  0.250000  0.050000     48.000000
 -0.250000  0.250000  0.050000     48.000000
 -0.150000  0.250000  0.050000     48.000000
 -0.050000  0.250000  0.050000     48.000000
  0.350000  0.350000  0.050000     24.000000
  0.450000  0.350000  0.050000     48.000000
 -0.450000  0.350000  0.050000     48.000000
 -0.350000  0.350000  0.050000     48.000000
 -0.250000  0.350000  0.050000     48.000000
 -0.150000  0.350000  0.050000     48.000000
 -0.050000  0.350000  0.050000     48.000000
  0.450000  0.450000  0.050000     24.000000
 -0.450000  0.450000  0.050000     48.000000
 -0.350000  0.450000  0.050000     48.000000
 -0.250000  0.450000  0.050000     48.000000
 -0.150000  0.450000  0.050000     48.000000
 -0.050000  0.450000  0.050000     48.000000
 -0.450000 -0.450000  0.050000     24.000000
 -0.350000 -0.450000  0.050000     48.000000
 -0.250000 -0.450000  0.050000     48.000000
 -0.150000 -0.450000  0.050000     48.000000
 -0.350000 -0.350000  0.050000     24.000000
 -0.250000 -0.350000  0.050000     48.000000
 -0.150000 -0.350000  0.050000     48.000000
 -0.250000 -0.250000  0.050000     24.000000
 -0.150000 -0.250000  0.050000     48.000000
 -0.150000 -0.150000  0.050000     24.000000
  0.150000  0.150000  0.150000      8.000000
  0.250000  0.150000  0.150000     24.000000
  0.350000  0.150000  0.150000     24.000000
  0.450000  0.150000  0.150000     24.000000
 -0.450000  0.150000  0.150000     24.000000
 -0.350000  0.150000  0.150000     24.000000
 -0.250000  0.150000  0.150000     24.000000
 -0.150000  0.150000  0.150000     24.000000
  0.250000  0.250000  0.150000     24.000000
  0.350000  0.250000  0.150000     48.000000
  0.450000  0.250000  0.150000     48.000000
 -0.450000  0.250000  0.150000     48.000000
 -0.350000  0.250000  0.150000     48.000000
 -0.250000  0.250000  0.150000     48.000000
 -0.150000  0.250000  0.150000     48.000000
  0.350000  0.350000  0.150000     24.000000
  0.450000  0.350000  0.150000     48.000000
 -0.450000  0.350000  0.150000     48.000000
 -0.350000  0.350000  0.150000     48.000000
 -0.250000  0.350000  0.150000     48.000000
 -0.150000  0.350000  0.150000     48.000000
  0.450000  0.450000  0.150000     24.000000
 -0.450000  0.450000  0.150000     48.000000
 -0.350000  0.450000  0.150000     48.000000
 -0.250000  0.450000  0.150000     48.000000
 -0.150000  0.450000  0.150000     48.000000
 -0.450000 -0.450000  0.150000     24.000000
 -0.350000 -0.450000  0.150000     48.000000
 -0.250000 -0.450000  0.150000     48.000000
 -0.350000 -0.350000  0.150000     24.000000
 -0.250000 -0.350000  0.150000     48.000000
 -0.250000 -0.250000  0.150000     24.000000
  0.250000  0.250000  0.250000      8.000000
  0.350000  0.250000  0.250000     24.000000
  0.450000  0.250000  0.250000     24.000000
 -0.450000  0.250000  0.250000     24.000000
 -0.350000  0.250000  0.250000     24.000000
 -0.250000  0.250000  0.250000     24.000000
  0.350000  0.350000  0.250000     24.000000
  0.450000  0.350000  0.250000     48.000000
 -0.450000  0.350000  0.250000     48.000000
 -0.350000  0.350000  0.250000     48.000000
 -0.250000  0.350000  0.250000     48.000000
  0.450000  0.450000  0.250000     24.000000
 -0.450000  0.450000  0.250000     48.000000
 -0.350000  0.450000  0.250000     48.000000
 -0.250000  0.450000  0.250000     48.000000
 -0.450000 -0.450000  0.250000     24.000000
 -0.350000 -0.450000  0.250000     48.000000
 -0.350000 -0.350000  0.250000     24.000000
  0.350000  0.350000  0.350000      8.000000
  0.450000  0.350000  0.350000     24.000000
 -0.450000  0.350000  0.350000     24.000000
 -0.350000  0.350000  0.350000     24.000000
  0.450000  0.450000  0.350000     24.000000
 -0.450000  0.450000  0.350000     48.000000
 -0.350000  0.450000  0.350000     48.000000
 -0.450000 -0.450000  0.350000     24.000000
  0.450000  0.450000  0.450000      8.000000
 -0.450000  0.450000  0.450000     24.000000
 
 Following cartesian coordinates:
            Coordinates               Weight
  0.013160  0.013160  0.013160      8.000000
 -0.013160  0.039480  0.039480     24.000000
 -0.039480  0.065800  0.065800     24.000000
 -0.065800  0.092120  0.092120     24.000000
 -0.092120  0.118440  0.118440     24.000000
  0.144760 -0.118440 -0.118440     24.000000
  0.118440 -0.092120 -0.092120     24.000000
  0.092120 -0.065800 -0.065800     24.000000
  0.065800 -0.039480 -0.039480     24.000000
  0.039480 -0.013160 -0.013160     24.000000
  0.013160  0.013160  0.065800     24.000000
 -0.013160  0.039480  0.092120     48.000000
 -0.039480  0.065800  0.118440     48.000000
 -0.065800  0.092120  0.144760     48.000000
  0.171080 -0.144760 -0.092120     48.000000
  0.144760 -0.118440 -0.065800     48.000000
  0.118440 -0.092120 -0.039480     48.000000
  0.092120 -0.065800 -0.013160     48.000000
  0.065800 -0.039480  0.013160     48.000000
  0.013160  0.013160  0.118440     24.000000
 -0.013160  0.039480  0.144760     48.000000
 -0.039480  0.065800  0.171080     48.000000
  0.197400 -0.171080 -0.065800     48.000000
  0.171080 -0.144760 -0.039480     48.000000
  0.144760 -0.118440 -0.013160     48.000000
  0.118440 -0.092120  0.013160     48.000000
  0.092120 -0.065800  0.039480     48.000000
  0.013160  0.013160  0.171080     24.000000
 -0.013160  0.039480  0.197400     48.000000
  0.223720 -0.197400 -0.039480     48.000000
  0.197400 -0.171080 -0.013160     48.000000
  0.171080 -0.144760  0.013160     48.000000
  0.144760 -0.118440  0.039480     48.000000
  0.118440 -0.092120  0.065800     48.000000
  0.013160  0.013160  0.223720     24.000000
  0.250040 -0.223720 -0.013160     48.000000
  0.223720 -0.197400  0.013160     48.000000
  0.197400 -0.171080  0.039480     48.000000
  0.171080 -0.144760  0.065800     48.000000
  0.144760 -0.118440  0.092120     48.000000
  0.013160  0.013160 -0.250040     24.000000
 -0.013160  0.039480 -0.223720     48.000000
 -0.039480  0.065800 -0.197400     48.000000
 -0.065800  0.092120 -0.171080     48.000000
  0.013160  0.013160 -0.197400     24.000000
 -0.013160  0.039480 -0.171080     48.000000
 -0.039480  0.065800 -0.144760     48.000000
  0.013160  0.013160 -0.144760     24.000000
 -0.013160  0.039480 -0.118440     48.000000
  0.013160  0.013160 -0.092120     24.000000
  0.039480  0.039480  0.039480      8.000000
  0.013160  0.065800  0.065800     24.000000
 -0.013160  0.092120  0.092120     24.000000
 -0.039480  0.118440  0.118440     24.000000
  0.197400 -0.118440 -0.118440     24.000000
  0.171080 -0.092120 -0.092120     24.000000
  0.144760 -0.065800 -0.065800     24.000000
  0.118440 -0.039480 -0.039480     24.000000
  0.039480  0.039480  0.092120     24.000000
  0.013160  0.065800  0.118440     48.000000
 -0.013160  0.092120  0.144760     48.000000
  0.223720 -0.144760 -0.092120     48.000000
  0.197400 -0.118440 -0.065800     48.000000
  0.171080 -0.092120 -0.039480     48.000000
  0.144760 -0.065800 -0.013160     48.000000
  0.039480  0.039480  0.144760     24.000000
  0.013160  0.065800  0.171080     48.000000
  0.250040 -0.171080 -0.065800     48.000000
  0.223720 -0.144760 -0.039480     48.000000
  0.197400 -0.118440 -0.013160     48.000000
  0.171080 -0.092120  0.013160     48.000000
  0.039480  0.039480  0.197400     24.000000
  0.276360 -0.197400 -0.039480     48.000000
  0.250040 -0.171080 -0.013160     48.000000
  0.223720 -0.144760  0.013160     48.000000
  0.197400 -0.118440  0.039480     48.000000
  0.039480  0.039480 -0.276360     24.000000
  0.013160  0.065800 -0.250040     48.000000
 -0.013160  0.092120 -0.223720     48.000000
  0.039480  0.039480 -0.223720     24.000000
  0.013160  0.065800 -0.197400     48.000000
  0.039480  0.039480 -0.171080     24.000000
  0.065800  0.065800  0.065800      8.000000
  0.039480  0.092120  0.092120     24.000000
  0.013160  0.118440  0.118440     24.000000
  0.250040 -0.118440 -0.118440     24.000000
  0.223720 -0.092120 -0.092120     24.000000
  0.197400 -0.065800 -0.065800     24.000000
  0.065800  0.065800  0.118440     24.000000
  0.039480  0.092120  0.144760     48.000000
  0.276360 -0.144760 -0.092120     48.000000
  0.250040 -0.118440 -0.065800     48.000000
  0.223720 -0.092120 -0.039480     48.000000
  0.065800  0.065800  0.171080     24.000000
  0.302680 -0.171080 -0.065800     48.000000
  0.276360 -0.144760 -0.039480     48.000000
  0.250040 -0.118440 -0.013160     48.000000
  0.065800  0.065800 -0.302680     24.000000
  0.039480  0.092120 -0.276360     48.000000
  0.065800  0.065800 -0.250040     24.000000
  0.092120  0.092120  0.092120      8.000000
  0.065800  0.118440  0.118440     24.000000
  0.302680 -0.118440 -0.118440     24.000000
  0.276360 -0.092120 -0.092120     24.000000
  0.092120  0.092120  0.144760     24.000000
  0.329000 -0.144760 -0.092120     48.000000
  0.302680 -0.118440 -0.065800     48.000000
  0.092120  0.092120 -0.329000     24.000000
  0.118440  0.118440  0.118440      8.000000
  0.355320 -0.118440 -0.118440     24.000000
 


--------------------------------------------------------------------------------------------------------




 Dimension of arrays:
   k-points           NKPTS =    110   k-points in BZ     NKDIM =    110   number of bands    NBANDS=     24
   number of dos      NEDOS =    301   number of ions     NIONS =      1
   non local maximal  LDIM  =      6   non local SUM 2l+1 LMDIM =     18
   total plane-waves  NPLWV =   5832
   max r-space proj   IRMAX =      1   max aug-charges    IRDMAX=  14680
   dimension x,y,z NGX =    18 NGY =   18 NGZ =   18
   dimension x,y,z NGXF=    36 NGYF=   36 NGZF=   36
   support grid    NGXF=    36 NGYF=   36 NGZF=   36
   ions per type =               1
   NGX,Y,Z   is equivalent  to a cutoff of  11.14, 11.14, 11.14 a.u.
   NGXF,Y,Z  is equivalent  to a cutoff of  22.28, 22.28, 22.28 a.u.

 SYSTEM =  Pt-fcc                                  
 POSCAR =  Pt                                      

 Startparameter for this run:
   NWRITE =      2    write-flag & timer
   PREC   = accura    normal or accurate (medium, high low for compatibility)
   ISTART =      0    job   : 0-new  1-cont  2-samecut
   ICHARG =      2    charge: 1-file 2-atom 10-const
   ISPIN  =      1    spin polarized calculation?
   LNONCOLLINEAR =      F non collinear calculations
   LSORBIT =      F    spin-orbit coupling
   INIWAV =      1    electr: 0-lowe 1-rand  2-diag
   LASPH  =      F    aspherical Exc in radial PAW
 Electronic Relaxation 1
   ENCUT  =  425.0 eV  31.24 Ry    5.59 a.u.   4.52  4.52  4.52*2*pi/ulx,y,z
   ENINI  =  425.0     initial cutoff
   ENAUG  =  527.0 eV  augmentation charge cutoff
   NELM   =    100;   NELMIN=  2; NELMDL= -5     # of ELM steps 
   EDIFF  = 0.1E-05   stopping-criterion for ELM
   LREAL  =      F    real-space projection
   NLSPLINE    = F    spline interpolate recip. space projectors
   LCOMPAT=      F    compatible to vasp.4.4
   GGA_COMPAT  = T    GGA compatible to vasp.4.4-vasp.4.6
   LMAXPAW     = -100 max onsite density
   LMAXMIX     =    2 max onsite mixed and CHGCAR
   VOSKOWN=      0    Vosko Wilk Nusair interpolation
   ROPT   =    0.00000
 Ionic relaxation
   EDIFFG = -.2E-01   stopping-criterion for IOM
   NSW    =    100    number of steps for IOM
   NBLOCK =      1;   KBLOCK =    100    inner block; outer block 
   IBRION =      2    ionic relax: 0-MD 1-quasi-New 2-CG
   NFREE  =      1    steps in history (QN), initial steepest desc. (CG)
   ISIF   =      2    stress and relaxation
   IWAVPR =     11    prediction:  0-non 1-charg 2-wave 3-comb
   ISYM   =      1    0-nonsym 1-usesym 2-fastsym
   LCORR  =      T    Harris-Foulkes like correction to forces

   POTIM  = 0.5000    time-step for ionic-motion
   TEIN   =    0.0    initial temperature
   TEBEG  =    0.0;   TEEND  =   0.0 temperature during run
   SMASS  =  -3.00    Nose mass-parameter (am)
   estimated Nose-frequenzy (Omega)   =  0.10E-29 period in steps = 0.13E+47 mass=  -0.165E-27a.u.
   SCALEE = 1.0000    scale energy and forces
   NPACO  =    256;   APACO  = 10.0  distance and # of slots for P.C.
   PSTRESS=    0.0 pullay stress

  Mass of Ions in am
   POMASS = 195.08
  Ionic Valenz
   ZVAL   =  16.00
  Atomic Wigner-Seitz radii
   RWIGS  =  -1.00
  virtual crystal weights 
   VCA    =   1.00
   NELECT =      16.0000    total number of electrons
   NUPDOWN=      -1.0000    fix difference up-down

 DOS related values:
   EMIN   =  10.00;   EMAX   =-10.00  energy-range for DOS
   EFERMI =   0.00
   ISMEAR =     0;   SIGMA  =   0.05  broadening in eV -4-tet -1-fermi 0-gaus

 Electronic relaxation 2 (details)
   IALGO  =     38    algorithm
   LDIAG  =      T    sub-space diagonalisation (order eigenvalues)
   LSUBROT=      F    optimize rotation matrix (better conditioning)
   TURBO    =      0    0=normal 1=particle mesh
   IRESTART =      0    0=no restart 2=restart with 2 vectors
   NREBOOT  =      0    no. of reboots
   NMIN     =      0    reboot dimension
   EREF     =   0.00    reference energy to select bands
   IMIX   =      4    mixing-type and parameters
     AMIX     =   0.40;   BMIX     =  1.00
     AMIX_MAG =   1.60;   BMIX_MAG =  1.00
     AMIN     =   0.10
     WC   =   100.;   INIMIX=   1;  MIXPRE=   1;  MAXMIX= -45

 Intra band minimization:
   WEIMIN = 0.0010     energy-eigenvalue tresh-hold
   EBREAK =  0.10E-07  absolut break condition
   DEPER  =   0.30     relativ break condition  

   TIME   =   0.40     timestep for ELM

  volume/ion in A,a.u.               =      13.71        92.53
  Fermi-wavevector in a.u.,A,eV,Ry     =   1.723539  3.257016 40.417268  2.970585
  Thomas-Fermi vector in A             =   2.799396
 
 Write flags
   LWAVE        =      T    write WAVECAR
   LDOWNSAMPLE  =      F    k-point downsampling of WAVECAR
   LCHARG       =      T    write CHGCAR
   LVTOT        =      F    write LOCPOT, total local potential
   LVHAR        =      F    write LOCPOT, Hartree potential only
   LELF         =      F    write electronic localiz. function (ELF)
   LORBIT       =     11    0 simple, 1 ext, 2 COOP (PROOUT), +10 PAW based schemes


 Dipole corrections
   LMONO  =      F    monopole corrections only (constant potential shift)
   LDIPOL =      F    correct potential (dipole corrections)
   IDIPOL =      0    1-x, 2-y, 3-z, 4-all directions 
   EPSILON=  1.0000000 bulk dielectric constant

 Exchange correlation treatment:
   GGA     =    --    GGA type
   LEXCH   =     8    internal setting for exchange type
   LIBXC   =     F    Libxc                    
   VOSKOWN =     0    Vosko Wilk Nusair interpolation
   LHFCALC =     F    Hartree Fock is set to
   LHFONE  =     F    Hartree Fock one center treatment
   AEXX    =    0.0000 exact exchange contribution

 Linear response parameters
   LEPSILON=     F    determine dielectric tensor
   LRPA    =     F    only Hartree local field effects (RPA)
   LNABLA  =     F    use nabla operator in PAW spheres
   LVEL    =     F    velocity operator in full k-point grid
   CSHIFT  =0.1000    complex shift for real part using Kramers Kronig
   OMEGAMAX=  -1.0    maximum frequency
   DEG_THRESHOLD= 0.2000000E-02 threshold for treating states as degnerate
   RTIME   =   -0.100 relaxation time in fs
  (WPLASMAI=    0.000 imaginary part of plasma frequency in eV, 0.658/RTIME)
   DFIELD  = 0.0000000 0.0000000 0.0000000 field for delta impulse in time
 
  Optional k-point grid parameters
   LKPOINTS_OPT  =     F    use optional k-point grid
   KPOINTS_OPT_MODE=     1    mode for optional k-point grid
 
 Orbital magnetization related:
   ORBITALMAG=     F  switch on orbital magnetization
   LCHIMAG   =     F  perturbation theory with respect to B field
   DQ        =  0.001000  dq finite difference perturbation B field
   LLRAUG    =     F  two centre corrections for induced B field



--------------------------------------------------------------------------------------------------------


 conjugate gradient relaxation of ions
 charge density and potential will be updated during run
 non-spin polarized calculation
 Variant of blocked Davidson
 Davidson routine will perform the subspace rotation
 perform sub-space diagonalisation
    after iterative eigenvector-optimisation
 modified Broyden-mixing scheme, WC =      100.0
 initial mixing is a Kerker type mixing with AMIX =  0.4000 and BMIX =      1.0000
 Hartree-type preconditioning will be used
 using additional bands           16
 reciprocal scheme for non local part
 use partial core corrections
 calculate Harris-corrections to forces 
   (improved forces if not selfconsistent)
 use gradient corrections 
 use of overlap-Matrix (Vanderbilt PP)
 Gauss-broadening in eV      SIGMA  =   0.05


--------------------------------------------------------------------------------------------------------


  energy-cutoff  :      425.00
  volume of cell :       13.71
      direct lattice vectors                 reciprocal lattice vectors
     0.000000000  1.899694684  1.899694684    -0.263200189  0.263200189  0.263200189
     1.899694684  0.000000000  1.899694684     0.263200189 -0.263200189  0.263200189
     1.899694684  1.899694684  0.000000000     0.263200189  0.263200189 -0.263200189

  length of vectors
     2.686573987  2.686573987  2.686573987     0.455876100  0.455876100  0.455876100


 
 k-points in units of 2pi/SCALE and weight: Automatic mesh                          
   0.01316001  0.01316001  0.01316001       0.002
  -0.01316001  0.03948003  0.03948003       0.006
  -0.03948003  0.06580005  0.06580005       0.006
  -0.06580005  0.09212007  0.09212007       0.006
  -0.09212007  0.11844009  0.11844009       0.006
   0.14476010 -0.11844009 -0.11844009       0.006
   0.11844009 -0.09212007 -0.09212007       0.006
   0.09212007 -0.06580005 -0.06580005       0.006
   0.06580005 -0.03948003 -0.03948003       0.006
   0.03948003 -0.01316001 -0.01316001       0.006
   0.01316001  0.01316001  0.06580005       0.006
  -0.01316001  0.03948003  0.09212007       0.012
  -0.03948003  0.06580005  0.11844009       0.012
  -0.06580005  0.09212007  0.14476010       0.012
   0.17108012 -0.14476010 -0.09212007       0.012
   0.14476010 -0.11844009 -0.06580005       0.012
   0.11844009 -0.09212007 -0.03948003       0.012
   0.09212007 -0.06580005 -0.01316001       0.012
   0.06580005 -0.03948003  0.01316001       0.012
   0.01316001  0.01316001  0.11844009       0.006
  -0.01316001  0.03948003  0.14476010       0.012
  -0.03948003  0.06580005  0.17108012       0.012
   0.19740014 -0.17108012 -0.06580005       0.012
   0.17108012 -0.14476010 -0.03948003       0.012
   0.14476010 -0.11844009 -0.01316001       0.012
   0.11844009 -0.09212007  0.01316001       0.012
   0.09212007 -0.06580005  0.03948003       0.012
   0.01316001  0.01316001  0.17108012       0.006
  -0.01316001  0.03948003  0.19740014       0.012
   0.22372016 -0.19740014 -0.03948003       0.012
   0.19740014 -0.17108012 -0.01316001       0.012
   0.17108012 -0.14476010  0.01316001       0.012
   0.14476010 -0.11844009  0.03948003       0.012
   0.11844009 -0.09212007  0.06580005       0.012
   0.01316001  0.01316001  0.22372016       0.006
   0.25004018 -0.22372016 -0.01316001       0.012
   0.22372016 -0.19740014  0.01316001       0.012
   0.19740014 -0.17108012  0.03948003       0.012
   0.17108012 -0.14476010  0.06580005       0.012
   0.14476010 -0.11844009  0.09212007       0.012
   0.01316001  0.01316001 -0.25004018       0.006
  -0.01316001  0.03948003 -0.22372016       0.012
  -0.03948003  0.06580005 -0.19740014       0.012
  -0.06580005  0.09212007 -0.17108012       0.012
   0.01316001  0.01316001 -0.19740014       0.006
  -0.01316001  0.03948003 -0.17108012       0.012
  -0.03948003  0.06580005 -0.14476010       0.012
   0.01316001  0.01316001 -0.14476010       0.006
  -0.01316001  0.03948003 -0.11844009       0.012
   0.01316001  0.01316001 -0.09212007       0.006
   0.03948003  0.03948003  0.03948003       0.002
   0.01316001  0.06580005  0.06580005       0.006
  -0.01316001  0.09212007  0.09212007       0.006
  -0.03948003  0.11844009  0.11844009       0.006
   0.19740014 -0.11844009 -0.11844009       0.006
   0.17108012 -0.09212007 -0.09212007       0.006
   0.14476010 -0.06580005 -0.06580005       0.006
   0.11844009 -0.03948003 -0.03948003       0.006
   0.03948003  0.03948003  0.09212007       0.006
   0.01316001  0.06580005  0.11844009       0.012
  -0.01316001  0.09212007  0.14476010       0.012
   0.22372016 -0.14476010 -0.09212007       0.012
   0.19740014 -0.11844009 -0.06580005       0.012
   0.17108012 -0.09212007 -0.03948003       0.012
   0.14476010 -0.06580005 -0.01316001       0.012
   0.03948003  0.03948003  0.14476010       0.006
   0.01316001  0.06580005  0.17108012       0.012
   0.25004018 -0.17108012 -0.06580005       0.012
   0.22372016 -0.14476010 -0.03948003       0.012
   0.19740014 -0.11844009 -0.01316001       0.012
   0.17108012 -0.09212007  0.01316001       0.012
   0.03948003  0.03948003  0.19740014       0.006
   0.27636020 -0.19740014 -0.03948003       0.012
   0.25004018 -0.17108012 -0.01316001       0.012
   0.22372016 -0.14476010  0.01316001       0.012
   0.19740014 -0.11844009  0.03948003       0.012
   0.03948003  0.03948003 -0.27636020       0.006
   0.01316001  0.06580005 -0.25004018       0.012
  -0.01316001  0.09212007 -0.22372016       0.012
   0.03948003  0.03948003 -0.22372016       0.006
   0.01316001  0.06580005 -0.19740014       0.012
   0.03948003  0.03948003 -0.17108012       0.006
   0.06580005  0.06580005  0.06580005       0.002
   0.03948003  0.09212007  0.09212007       0.006
   0.01316001  0.11844009  0.11844009       0.006
   0.25004018 -0.11844009 -0.11844009       0.006
   0.22372016 -0.09212007 -0.09212007       0.006
   0.19740014 -0.06580005 -0.06580005       0.006
   0.06580005  0.06580005  0.11844009       0.006
   0.03948003  0.09212007  0.14476010       0.012
   0.27636020 -0.14476010 -0.09212007       0.012
   0.25004018 -0.11844009 -0.06580005       0.012
   0.22372016 -0.09212007 -0.03948003       0.012
   0.06580005  0.06580005  0.17108012       0.006
   0.30268022 -0.17108012 -0.06580005       0.012
   0.27636020 -0.14476010 -0.03948003       0.012
   0.25004018 -0.11844009 -0.01316001       0.012
   0.06580005  0.06580005 -0.30268022       0.006
   0.03948003  0.09212007 -0.27636020       0.012
   0.06580005  0.06580005 -0.25004018       0.006
   0.09212007  0.09212007  0.09212007       0.002
   0.06580005  0.11844009  0.11844009       0.006
   0.30268022 -0.11844009 -0.11844009       0.006
   0.27636020 -0.09212007 -0.09212007       0.006
   0.09212007  0.09212007  0.14476010       0.006
   0.32900024 -0.14476010 -0.09212007       0.012
   0.30268022 -0.11844009 -0.06580005       0.012
   0.09212007  0.09212007 -0.32900024       0.006
   0.11844009  0.11844009  0.11844009       0.002
   0.35532026 -0.11844009 -0.11844009       0.006
 
 k-points in reciprocal lattice and weights: Automatic mesh                          
   0.05000000  0.05000000  0.05000000       0.002
   0.15000000  0.05000000  0.05000000       0.006
   0.25000000  0.05000000  0.05000000       0.006
   0.35000000  0.05000000  0.05000000       0.006
   0.45000000  0.05000000  0.05000000       0.006
  -0.45000000  0.05000000  0.05000000       0.006
  -0.35000000  0.05000000  0.05000000       0.006
  -0.25000000  0.05000000  0.05000000       0.006
  -0.15000000  0.05000000  0.05000000       0.006
  -0.05000000  0.05000000  0.05000000       0.006
   0.15000000  0.15000000  0.05000000       0.006
   0.25000000  0.15000000  0.05000000       0.012
   0.35000000  0.15000000  0.05000000       0.012
   0.45000000  0.15000000  0.05000000       0.012
  -0.45000000  0.15000000  0.05000000       0.012
  -0.35000000  0.15000000  0.05000000       0.012
  -0.25000000  0.15000000  0.05000000       0.012
  -0.15000000  0.15000000  0.05000000       0.012
  -0.05000000  0.15000000  0.05000000       0.012
   0.25000000  0.25000000  0.05000000       0.006
   0.35000000  0.25000000  0.05000000       0.012
   0.45000000  0.25000000  0.05000000       0.012
  -0.45000000  0.25000000  0.05000000       0.012
  -0.35000000  0.25000000  0.05000000       0.012
  -0.25000000  0.25000000  0.05000000       0.012
  -0.15000000  0.25000000  0.05000000       0.012
  -0.05000000  0.25000000  0.05000000       0.012
   0.35000000  0.35000000  0.05000000       0.006
   0.45000000  0.35000000  0.05000000       0.012
  -0.45000000  0.35000000  0.05000000       0.012
  -0.35000000  0.35000000  0.05000000       0.012
  -0.25000000  0.35000000  0.05000000       0.012
  -0.15000000  0.35000000  0.05000000       0.012
  -0.05000000  0.35000000  0.05000000       0.012
   0.45000000  0.45000000  0.05000000       0.006
  -0.45000000  0.45000000  0.05000000       0.012
  -0.35000000  0.45000000  0.05000000       0.012
  -0.25000000  0.45000000  0.05000000       0.012
  -0.15000000  0.45000000  0.05000000       0.012
  -0.05000000  0.45000000  0.05000000       0.012
  -0.45000000 -0.45000000  0.05000000       0.006
  -0.35000000 -0.45000000  0.05000000       0.012
  -0.25000000 -0.45000000  0.05000000       0.012
  -0.15000000 -0.45000000  0.05000000       0.012
  -0.35000000 -0.35000000  0.05000000       0.006
  -0.25000000 -0.35000000  0.05000000       0.012
  -0.15000000 -0.35000000  0.05000000       0.012
  -0.25000000 -0.25000000  0.05000000       0.006
  -0.15000000 -0.25000000  0.05000000       0.012
  -0.15000000 -0.15000000  0.05000000       0.006
   0.15000000  0.15000000  0.15000000       0.002
   0.25000000  0.15000000  0.15000000       0.006
   0.35000000  0.15000000  0.15000000       0.006
   0.45000000  0.15000000  0.15000000       0.006
  -0.45000000  0.15000000  0.15000000       0.006
  -0.35000000  0.15000000  0.15000000       0.006
  -0.25000000  0.15000000  0.15000000       0.006
  -0.15000000  0.15000000  0.15000000       0.006
   0.25000000  0.25000000  0.15000000       0.006
   0.35000000  0.25000000  0.15000000       0.012
   0.45000000  0.25000000  0.15000000       0.012
  -0.45000000  0.25000000  0.15000000       0.012
  -0.35000000  0.25000000  0.15000000       0.012
  -0.25000000  0.25000000  0.15000000       0.012
  -0.15000000  0.25000000  0.15000000       0.012
   0.35000000  0.35000000  0.15000000       0.006
   0.45000000  0.35000000  0.15000000       0.012
  -0.45000000  0.35000000  0.15000000       0.012
  -0.35000000  0.35000000  0.15000000       0.012
  -0.25000000  0.35000000  0.15000000       0.012
  -0.15000000  0.35000000  0.15000000       0.012
   0.45000000  0.45000000  0.15000000       0.006
  -0.45000000  0.45000000  0.15000000       0.012
  -0.35000000  0.45000000  0.15000000       0.012
  -0.25000000  0.45000000  0.15000000       0.012
  -0.15000000  0.45000000  0.15000000       0.012
  -0.45000000 -0.45000000  0.15000000       0.006
  -0.35000000 -0.45000000  0.15000000       0.012
  -0.25000000 -0.45000000  0.15000000       0.012
  -0.35000000 -0.35000000  0.15000000       0.006
  -0.25000000 -0.35000000  0.15000000       0.012
  -0.25000000 -0.25000000  0.15000000       0.006
   0.25000000  0.25000000  0.25000000       0.002
   0.35000000  0.25000000  0.25000000       0.006
   0.45000000  0.25000000  0.25000000       0.006
  -0.45000000  0.25000000  0.25000000       0.006
  -0.35000000  0.25000000  0.25000000       0.006
  -0.25000000  0.25000000  0.25000000       0.006
   0.35000000  0.35000000  0.25000000       0.006
   0.45000000  0.35000000  0.25000000       0.012
  -0.45000000  0.35000000  0.25000000       0.012
  -0.35000000  0.35000000  0.25000000       0.012
  -0.25000000  0.35000000  0.25000000       0.012
   0.45000000  0.45000000  0.25000000       0.006
  -0.45000000  0.45000000  0.25000000       0.012
  -0.35000000  0.45000000  0.25000000       0.012
  -0.25000000  0.45000000  0.25000000       0.012
  -0.45000000 -0.45000000  0.25000000       0.006
  -0.35000000 -0.45000000  0.25000000       0.012
  -0.35000000 -0.35000000  0.25000000       0.006
   0.35000000  0.35000000  0.35000000       0.002
   0.45000000  0.35000000  0.35000000       0.006
  -0.45000000  0.35000000  0.35000000       0.006
  -0.35000000  0.35000000  0.35000000       0.006
   0.45000000  0.45000000  0.35000000       0.006
  -0.45000000  0.45000000  0.35000000       0.012
  -0.35000000  0.45000000  0.35000000       0.012
  -0.45000000 -0.45000000  0.35000000       0.006
   0.45000000  0.45000000  0.45000000       0.002
  -0.45000000  0.45000000  0.45000000       0.006
 
 position of ions in fractional coordinates (direct lattice) 
   0.00000000  0.00000000  0.00000000
 
 position of ions in cartesian coordinates  (Angst):
   0.00000000  0.00000000  0.00000000
 


--------------------------------------------------------------------------------------------------------


 k-point   1 :   0.0500 0.0500 0.0500  plane waves:     277
 k-point   2 :   0.1500 0.0500 0.0500  plane waves:     276
 k-point   3 :   0.2500 0.0500 0.0500  plane waves:     281
 k-point   4 :   0.3500 0.0500 0.0500  plane waves:     278
 k-point   5 :   0.4500 0.0500 0.0500  plane waves:     270
 k-point   6 :  -0.4500 0.0500 0.0500  plane waves:     269
 k-point   7 :  -0.3500 0.0500 0.0500  plane waves:     274
 k-point   8 :  -0.2500 0.0500 0.0500  plane waves:     280
 k-point   9 :  -0.1500 0.0500 0.0500  plane waves:     279
 k-point  10 :  -0.0500 0.0500 0.0500  plane waves:     275
 k-point  11 :   0.1500 0.1500 0.0500  plane waves:     281
 k-point  12 :   0.2500 0.1500 0.0500  plane waves:     285
 k-point  13 :   0.3500 0.1500 0.0500  plane waves:     279
 k-point  14 :   0.4500 0.1500 0.0500  plane waves:     273
 k-point  15 :  -0.4500 0.1500 0.0500  plane waves:     268
 k-point  16 :  -0.3500 0.1500 0.0500  plane waves:     272
 k-point  17 :  -0.2500 0.1500 0.0500  plane waves:     277
 k-point  18 :  -0.1500 0.1500 0.0500  plane waves:     282
 k-point  19 :  -0.0500 0.1500 0.0500  plane waves:     280
 k-point  20 :   0.2500 0.2500 0.0500  plane waves:     286
 k-point  21 :   0.3500 0.2500 0.0500  plane waves:     278
 k-point  22 :   0.4500 0.2500 0.0500  plane waves:     272
 k-point  23 :  -0.4500 0.2500 0.0500  plane waves:     269
 k-point  24 :  -0.3500 0.2500 0.0500  plane waves:     269
 k-point  25 :  -0.2500 0.2500 0.0500  plane waves:     270
 k-point  26 :  -0.1500 0.2500 0.0500  plane waves:     274
 k-point  27 :  -0.0500 0.2500 0.0500  plane waves:     281
 k-point  28 :   0.3500 0.3500 0.0500  plane waves:     270
 k-point  29 :   0.4500 0.3500 0.0500  plane waves:     270
 k-point  30 :  -0.4500 0.3500 0.0500  plane waves:     270
 k-point  31 :  -0.3500 0.3500 0.0500  plane waves:     273
 k-point  32 :  -0.2500 0.3500 0.0500  plane waves:     271
 k-point  33 :  -0.1500 0.3500 0.0500  plane waves:     270
 k-point  34 :  -0.0500 0.3500 0.0500  plane waves:     272
 k-point  35 :   0.4500 0.4500 0.0500  plane waves:     271
 k-point  36 :  -0.4500 0.4500 0.0500  plane waves:     269
 k-point  37 :  -0.3500 0.4500 0.0500  plane waves:     273
 k-point  38 :  -0.2500 0.4500 0.0500  plane waves:     271
 k-point  39 :  -0.1500 0.4500 0.0500  plane waves:     269
 k-point  40 :  -0.0500 0.4500 0.0500  plane waves:     269
 k-point  41 :  -0.4500-0.4500 0.0500  plane waves:     268
 k-point  42 :  -0.3500-0.4500 0.0500  plane waves:     273
 k-point  43 :  -0.2500-0.4500 0.0500  plane waves:     271
 k-point  44 :  -0.1500-0.4500 0.0500  plane waves:     270
 k-point  45 :  -0.3500-0.3500 0.0500  plane waves:     272
 k-point  46 :  -0.2500-0.3500 0.0500  plane waves:     274
 k-point  47 :  -0.1500-0.3500 0.0500  plane waves:     277
 k-point  48 :  -0.2500-0.2500 0.0500  plane waves:     278
 k-point  49 :  -0.1500-0.2500 0.0500  plane waves:     282
 k-point  50 :  -0.1500-0.1500 0.0500  plane waves:     283
 k-point  51 :   0.1500 0.1500 0.1500  plane waves:     274
 k-point  52 :   0.2500 0.1500 0.1500  plane waves:     283
 k-point  53 :   0.3500 0.1500 0.1500  plane waves:     275
 k-point  54 :   0.4500 0.1500 0.1500  plane waves:     277
 k-point  55 :  -0.4500 0.1500 0.1500  plane waves:     267
 k-point  56 :  -0.3500 0.1500 0.1500  plane waves:     269
 k-point  57 :  -0.2500 0.1500 0.1500  plane waves:     275
 k-point  58 :  -0.1500 0.1500 0.1500  plane waves:     282
 k-point  59 :   0.2500 0.2500 0.1500  plane waves:     285
 k-point  60 :   0.3500 0.2500 0.1500  plane waves:     280
 k-point  61 :   0.4500 0.2500 0.1500  plane waves:     273
 k-point  62 :  -0.4500 0.2500 0.1500  plane waves:     269
 k-point  63 :  -0.3500 0.2500 0.1500  plane waves:     268
 k-point  64 :  -0.2500 0.2500 0.1500  plane waves:     272
 k-point  65 :  -0.1500 0.2500 0.1500  plane waves:     275
 k-point  66 :   0.3500 0.3500 0.1500  plane waves:     279
 k-point  67 :   0.4500 0.3500 0.1500  plane waves:     272
 k-point  68 :  -0.4500 0.3500 0.1500  plane waves:     270
 k-point  69 :  -0.3500 0.3500 0.1500  plane waves:     269
 k-point  70 :  -0.2500 0.3500 0.1500  plane waves:     273
 k-point  71 :  -0.1500 0.3500 0.1500  plane waves:     272
 k-point  72 :   0.4500 0.4500 0.1500  plane waves:     269
 k-point  73 :  -0.4500 0.4500 0.1500  plane waves:     271
 k-point  74 :  -0.3500 0.4500 0.1500  plane waves:     268
 k-point  75 :  -0.2500 0.4500 0.1500  plane waves:     269
 k-point  76 :  -0.1500 0.4500 0.1500  plane waves:     271
 k-point  77 :  -0.4500-0.4500 0.1500  plane waves:     276
 k-point  78 :  -0.3500-0.4500 0.1500  plane waves:     273
 k-point  79 :  -0.2500-0.4500 0.1500  plane waves:     272
 k-point  80 :  -0.3500-0.3500 0.1500  plane waves:     272
 k-point  81 :  -0.2500-0.3500 0.1500  plane waves:     270
 k-point  82 :  -0.2500-0.2500 0.1500  plane waves:     273
 k-point  83 :   0.2500 0.2500 0.2500  plane waves:     280
 k-point  84 :   0.3500 0.2500 0.2500  plane waves:     278
 k-point  85 :   0.4500 0.2500 0.2500  plane waves:     270
 k-point  86 :  -0.4500 0.2500 0.2500  plane waves:     273
 k-point  87 :  -0.3500 0.2500 0.2500  plane waves:     273
 k-point  88 :  -0.2500 0.2500 0.2500  plane waves:     271
 k-point  89 :   0.3500 0.3500 0.2500  plane waves:     274
 k-point  90 :   0.4500 0.3500 0.2500  plane waves:     273
 k-point  91 :  -0.4500 0.3500 0.2500  plane waves:     270
 k-point  92 :  -0.3500 0.3500 0.2500  plane waves:     272
 k-point  93 :  -0.2500 0.3500 0.2500  plane waves:     268
 k-point  94 :   0.4500 0.4500 0.2500  plane waves:     272
 k-point  95 :  -0.4500 0.4500 0.2500  plane waves:     266
 k-point  96 :  -0.3500 0.4500 0.2500  plane waves:     269
 k-point  97 :  -0.2500 0.4500 0.2500  plane waves:     268
 k-point  98 :  -0.4500-0.4500 0.2500  plane waves:     273
 k-point  99 :  -0.3500-0.4500 0.2500  plane waves:     269
 k-point 100 :  -0.3500-0.3500 0.2500  plane waves:     272
 k-point 101 :   0.3500 0.3500 0.3500  plane waves:     281
 k-point 102 :   0.4500 0.3500 0.3500  plane waves:     273
 k-point 103 :  -0.4500 0.3500 0.3500  plane waves:     267
 k-point 104 :  -0.3500 0.3500 0.3500  plane waves:     272
 k-point 105 :   0.4500 0.4500 0.3500  plane waves:     271
 k-point 106 :  -0.4500 0.4500 0.3500  plane waves:     267
 k-point 107 :  -0.3500 0.4500 0.3500  plane waves:     273
 k-point 108 :  -0.4500-0.4500 0.3500  plane waves:     269
 k-point 109 :   0.4500 0.4500 0.4500  plane waves:     269
 k-point 110 :  -0.4500 0.4500 0.4500  plane waves:     270

 maximum and minimum number of plane-waves per node :       286      266

 maximum number of plane-waves:       286
 maximum index in each direction: 
   IXMAX=    4   IYMAX=    4   IZMAX=    4
   IXMIN=   -4   IYMIN=   -4   IZMIN=   -4


 serial   3D FFT for wavefunctions
 parallel 3D FFT for charge:
    minimum data exchange during FFTs selected (reduces bandwidth)


 total amount of memory used by VASP MPI-rank0    35610. kBytes
=======================================================================

   base      :      30000. kBytes
   nonl-proj :       4566. kBytes
   fftplans  :        113. kBytes
   grid      :        367. kBytes
   one-center:         15. kBytes
   wavefun   :        549. kBytes
 
     INWAV:  cpu time      0.0000: real time      0.0004
 Broyden mixing: mesh for mixing (old mesh)
   NGX =  9   NGY =  9   NGZ =  9
  (NGX  = 36   NGY  = 36   NGZ  = 36)
  gives a total of    729 points

 initial charge density was supplied:
 charge density of overlapping atoms calculated
 number of electron      16.0000000 magnetization 
 keeping initial charge density in first step


--------------------------------------------------------------------------------------------------------


 Maximum index for augmentation-charges          950 (set IRDMAX)


--------------------------------------------------------------------------------------------------------


 First call to EWALD:  gamma=   0.741
 Maximum number of real-space cells 3x 3x 3
 Maximum number of reciprocal cells 3x 3x 3

    FEWALD:  cpu time      0.0014: real time      0.0014


--------------------------------------- Iteration      1(   1)  ---------------------------------------


    POTLOK:  cpu time      0.0028: real time      0.0029
    SETDIJ:  cpu time      0.0021: real time      0.0021
     EDDAV:  cpu time      0.4587: real time      0.4616
       DOS:  cpu time      0.0010: real time      0.0010
    --------------------------------------------
      LOOP:  cpu time      0.4646: real time      0.4677

 eigenvalue-minimisations  :  5928
 total energy-change (2. order) : 0.1523543E+02  (-0.1173374E+04)
 number of electron      16.0000000 magnetization 
 augmentation part       16.0000000 magnetization 

 Free energy of the ion-electron system (eV)
  ---------------------------------------------------
  alpha Z        PSCENC =       174.98728600
  Ewald energy   TEWEN  =     -2224.22396084
  -Hartree energ DENC   =      -362.33878326
  -exchange      EXHF   =         0.00000000
  -V(xc)+E(xc)   XCENC  =        64.41428974
  PAW double counting   =      2065.75261637    -2030.83594803
  entropy T*S    EENTRO =        -0.00181999
  eigenvalues    EBANDS =      -100.71325638
  atomic energy  EATOM  =      2428.19501064
  Solvation  Ediel_sol  =         0.00000000
  ---------------------------------------------------
  free energy    TOTEN  =        15.23543425 eV

  energy without entropy =       15.23725424  energy(sigma->0) =       15.23634425


--------------------------------------------------------------------------------------------------------




--------------------------------------- Iteration      1(   2)  ---------------------------------------


     EDDAV:  cpu time      0.5618: real time      0.5656
       DOS:  cpu time      0.0005: real time      0.0005
    --------------------------------------------
      LOOP:  cpu time      0.5623: real time      0.5661

 eigenvalue-minimisations  :  6744
 total energy-change (2. order) :-0.2136261E+02  (-0.2104897E+02)
 number of electron      16.0000000 magnetization 
 augmentation part       16.0000000 magnetization 

 Free energy of the ion-electron system (eV)
  ---------------------------------------------------
  alpha Z        PSCENC =       174.98728600
  Ewald energy   TEWEN  =     -2224.22396084
  -Hartree energ DENC   =      -362.33878326
  -exchange      EXHF   =         0.00000000
  -V(xc)+E(xc)   XCENC  =        64.41428974
  PAW double counting   =      2065.75261637    -2030.83594803
  entropy T*S    EENTRO =        -0.00150719
  eigenvalues    EBANDS =      -122.07617839
  atomic energy  EATOM  =      2428.19501064
  Solvation  Ediel_sol  =         0.00000000
  ---------------------------------------------------
  free energy    TOTEN  =        -6.12717496 eV

  energy without entropy =       -6.12566777  energy(sigma->0) =       -6.12642136


--------------------------------------------------------------------------------------------------------




--------------------------------------- Iteration      1(   3)  ---------------------------------------


     EDDAV:  cpu time      0.6622: real time      0.6661
       DOS:  cpu time      0.0005: real time      0.0005
    --------------------------------------------
      LOOP:  cpu time      0.6627: real time      0.6666

 eigenvalue-minimisations  :  7032
 total energy-change (2. order) :-0.3062890E-01  (-0.3062861E-01)
 number of electron      16.0000000 magnetization 
 augmentation part       16.0000000 magnetization 

 Free energy of the ion-electron system (eV)
  ---------------------------------------------------
  alpha Z        PSCENC =       174.98728600
  Ewald energy   TEWEN  =     -2224.22396084
  -Hartree energ DENC   =      -362.33878326
  -exchange      EXHF   =         0.00000000
  -V(xc)+E(xc)   XCENC  =        64.41428974
  PAW double counting   =      2065.75261637    -2030.83594803
  entropy T*S    EENTRO =        -0.00151130
  eigenvalues    EBANDS =      -122.10680318
  atomic energy  EATOM  =      2428.19501064
  Solvation  Ediel_sol  =         0.00000000
  ---------------------------------------------------
  free energy    TOTEN  =        -6.15780386 eV

  energy without entropy =       -6.15629256  energy(sigma->0) =       -6.15704821


--------------------------------------------------------------------------------------------------------




--------------------------------------- Iteration      1(   4)  ---------------------------------------


     EDDAV:  cpu time      0.8479: real time      0.8528
       DOS:  cpu time      0.0005: real time      0.0005
    --------------------------------------------
      LOOP:  cpu time      0.8484: real time      0.8532

 eigenvalue-minimisations  :  8232
 total energy-change (2. order) :-0.2306925E-04  (-0.2306901E-04)
 number of electron      16.0000000 magnetization 
 augmentation part       16.0000000 magnetization 

 Free energy of the ion-electron system (eV)
  ---------------------------------------------------
  alpha Z        PSCENC =       174.98728600
  Ewald energy   TEWEN  =     -2224.22396084
  -Hartree energ DENC   =      -362.33878326
  -exchange      EXHF   =         0.00000000
  -V(xc)+E(xc)   XCENC  =        64.41428974
  PAW double counting   =      2065.75261637    -2030.83594803
  entropy T*S    EENTRO =        -0.00151130
  eigenvalues    EBANDS =      -122.10682625
  atomic energy  EATOM  =      2428.19501064
  Solvation  Ediel_sol  =         0.00000000
  ---------------------------------------------------
  free energy    TOTEN  =        -6.15782693 eV

  energy without entropy =       -6.15631563  energy(sigma->0) =       -6.15707128


--------------------------------------------------------------------------------------------------------




--------------------------------------- Iteration      1(   5)  ---------------------------------------


     EDDAV:  cpu time      0.6334: real time      0.6371
       DOS:  cpu time      0.0005: real time      0.0005
    CHARGE:  cpu time      0.0120: real time      0.0120
    MIXING:  cpu time      0.0002: real time      0.0002
    --------------------------------------------
      LOOP:  cpu time      0.6460: real time      0.6498

 eigenvalue-minimisations  :  6936
 total energy-change (2. order) : 0.5070433E-09  (-0.2715308E-09)
 number of electron      16.0000006 magnetization 
 augmentation part        3.9909175 magnetization 

 Broyden mixing:
  rms(total) = 0.19481E+01    rms(broyden)= 0.19481E+01
  rms(prec ) = 0.23794E+01
  weight for this iteration     100.00

 Free energy of the ion-electron system (eV)
  ---------------------------------------------------
  alpha Z        PSCENC =       174.98728600
  Ewald energy   TEWEN  =     -2224.22396084
  -Hartree energ DENC   =      -362.33878326
  -exchange      EXHF   =         0.00000000
  -V(xc)+E(xc)   XCENC  =        64.41428974
  PAW double counting   =      2065.75261637    -2030.83594803
  entropy T*S    EENTRO =        -0.00151130
  eigenvalues    EBANDS =      -122.10682625
  atomic energy  EATOM  =      2428.19501064
  Solvation  Ediel_sol  =         0.00000000
  ---------------------------------------------------
  free energy    TOTEN  =        -6.15782693 eV

  energy without entropy =       -6.15631563  energy(sigma->0) =       -6.15707128


--------------------------------------------------------------------------------------------------------




--------------------------------------- Iteration      1(   6)  ---------------------------------------


    POTLOK:  cpu time      0.0023: real time      0.0025
    SETDIJ:  cpu time      0.0020: real time      0.0020
     EDDAV:  cpu time      0.4809: real time      0.4836
       DOS:  cpu time      0.0005: real time      0.0005
    CHARGE:  cpu time      0.0120: real time      0.0120
    MIXING:  cpu time      0.0002: real time      0.0002
    --------------------------------------------
      LOOP:  cpu time      0.4980: real time      0.5009

 eigenvalue-minimisations  :  5976
 total energy-change (2. order) : 0.2987092E+00  (-0.9477894E-01)
 number of electron      16.0000006 magnetization 
 augmentation part        4.0874258 magnetization 

 Broyden mixing:
  rms(total) = 0.75088E+00    rms(broyden)= 0.75087E+00
  rms(prec ) = 0.84475E+00
  weight for this iteration     100.00

 eigenvalues of (default mixing * dielectric matrix)
  average eigenvalue GAMMA=   1.6129
  1.6129

 Free energy of the ion-electron system (eV)
  ---------------------------------------------------
  alpha Z        PSCENC =       174.98728600
  Ewald energy   TEWEN  =     -2224.22396084
  -Hartree energ DENC   =      -348.60682064
  -exchange      EXHF   =         0.00000000
  -V(xc)+E(xc)   XCENC  =        63.81409965
  PAW double counting   =      2316.73046423    -2283.97856205
  entropy T*S    EENTRO =        -0.00188468
  eigenvalues    EBANDS =      -132.77475006
  atomic energy  EATOM  =      2428.19501064
  Solvation  Ediel_sol  =         0.00000000
  ---------------------------------------------------
  free energy    TOTEN  =        -5.85911774 eV

  energy without entropy =       -5.85723306  energy(sigma->0) =       -5.85817540


--------------------------------------------------------------------------------------------------------




--------------------------------------- Iteration      1(   7)  ---------------------------------------


    POTLOK:  cpu time      0.0022: real time      0.0024
    SETDIJ:  cpu time      0.0019: real time      0.0019
     EDDAV:  cpu time      0.7357: real time      0.7399
       DOS:  cpu time      0.0005: real time      0.0005
    CHARGE:  cpu time      0.0114: real time      0.0115
    MIXING:  cpu time      0.0002: real time      0.0002
    --------------------------------------------
      LOOP:  cpu time      0.7519: real time      0.7564

 eigenvalue-minimisations  :  7824
 total energy-change (2. order) : 0.2514871E-01  (-0.1107731E-01)
 number of electron      16.0000006 magnetization 
 augmentation part        4.1194219 magnetization 

 Broyden mixing:
  rms(total) = 0.19187E+00    rms(broyden)= 0.19187E+00
  rms(prec ) = 0.21455E+00
  weight for this iteration     100.00

 eigenvalues of (default mixing * dielectric matrix)
  average eigenvalue GAMMA=   1.9980
  1.2709  2.7251

 Free energy of the ion-electron system (eV)
  ---------------------------------------------------
  alpha Z        PSCENC =       174.98728600
  Ewald energy   TEWEN  =     -2224.22396084
  -Hartree energ DENC   =      -343.67372448
  -exchange      EXHF   =         0.00000000
  -V(xc)+E(xc)   XCENC  =        63.58947542
  PAW double counting   =      2472.31848531    -2440.49306695
  entropy T*S    EENTRO =        -0.00204269
  eigenvalues    EBANDS =      -136.53143145
  atomic energy  EATOM  =      2428.19501064
  Solvation  Ediel_sol  =         0.00000000
  ---------------------------------------------------
  free energy    TOTEN  =        -5.83396904 eV

  energy without entropy =       -5.83192635  energy(sigma->0) =       -5.83294769


--------------------------------------------------------------------------------------------------------




--------------------------------------- Iteration      1(   8)  ---------------------------------------


    POTLOK:  cpu time      0.0020: real time      0.0022
    SETDIJ:  cpu time      0.0018: real time      0.0018
     EDDAV:  cpu time      0.4109: real time      0.4131
       DOS:  cpu time      0.0005: real time      0.0005
    CHARGE:  cpu time      0.0113: real time      0.0114
    MIXING:  cpu time      0.0002: real time      0.0002
    --------------------------------------------
      LOOP:  cpu time      0.4267: real time      0.4292

 eigenvalue-minimisations  :  5544
 total energy-change (2. order) : 0.1869757E-02  (-0.5578830E-03)
 number of electron      16.0000006 magnetization 
 augmentation part        4.1127884 magnetization 

 Broyden mixing:
  rms(total) = 0.25270E-01    rms(broyden)= 0.25267E-01
  rms(prec ) = 0.28587E-01
  weight for this iteration     100.00

 eigenvalues of (default mixing * dielectric matrix)
  average eigenvalue GAMMA=   1.5902
  1.0670  1.2605  2.4432

 Free energy of the ion-electron system (eV)
  ---------------------------------------------------
  alpha Z        PSCENC =       174.98728600
  Ewald energy   TEWEN  =     -2224.22396084
  -Hartree energ DENC   =      -343.90033870
  -exchange      EXHF   =         0.00000000
  -V(xc)+E(xc)   XCENC  =        63.58764041
  PAW double counting   =      2552.35835906    -2520.65377282
  entropy T*S    EENTRO =        -0.00204829
  eigenvalues    EBANDS =      -136.18027474
  atomic energy  EATOM  =      2428.19501064
  Solvation  Ediel_sol  =         0.00000000
  ---------------------------------------------------
  free energy    TOTEN  =        -5.83209928 eV

  energy without entropy =       -5.83005099  energy(sigma->0) =       -5.83107514


--------------------------------------------------------------------------------------------------------




--------------------------------------- Iteration      1(   9)  ---------------------------------------


    POTLOK:  cpu time      0.0021: real time      0.0022
    SETDIJ:  cpu time      0.0019: real time      0.0019
     EDDAV:  cpu time      0.7057: real time      0.7097
       DOS:  cpu time      0.0005: real time      0.0005
    CHARGE:  cpu time      0.0113: real time      0.0114
    MIXING:  cpu time      0.0002: real time      0.0002
    --------------------------------------------
      LOOP:  cpu time      0.7217: real time      0.7259

 eigenvalue-minimisations  :  7368
 total energy-change (2. order) : 0.9653668E-04  (-0.9419245E-05)
 number of electron      16.0000006 magnetization 
 augmentation part        4.1136307 magnetization 

 Broyden mixing:
  rms(total) = 0.15531E-02    rms(broyden)= 0.15523E-02
  rms(prec ) = 0.31388E-02
  weight for this iteration     100.00

 eigenvalues of (default mixing * dielectric matrix)
  average eigenvalue GAMMA=   1.8423
  1.0097  1.2518  2.7080  2.3997

 Free energy of the ion-electron system (eV)
  ---------------------------------------------------
  alpha Z        PSCENC =       174.98728600
  Ewald energy   TEWEN  =     -2224.22396084
  -Hartree energ DENC   =      -343.89446261
  -exchange      EXHF   =         0.00000000
  -V(xc)+E(xc)   XCENC  =        63.58871718
  PAW double counting   =      2543.69080568    -2511.95213081
  entropy T*S    EENTRO =        -0.00204647
  eigenvalues    EBANDS =      -136.22122152
  atomic energy  EATOM  =      2428.19501064
  Solvation  Ediel_sol  =         0.00000000
  ---------------------------------------------------
  free energy    TOTEN  =        -5.83200274 eV

  energy without entropy =       -5.82995628  energy(sigma->0) =       -5.83097951


--------------------------------------------------------------------------------------------------------




--------------------------------------- Iteration      1(  10)  ---------------------------------------


    POTLOK:  cpu time      0.0020: real time      0.0021
    SETDIJ:  cpu time      0.0018: real time      0.0018
     EDDAV:  cpu time      0.7083: real time      0.7123
       DOS:  cpu time      0.0005: real time      0.0005
    CHARGE:  cpu time      0.0114: real time      0.0115
    MIXING:  cpu time      0.0002: real time      0.0002
    --------------------------------------------
      LOOP:  cpu time      0.7242: real time      0.7283

 eigenvalue-minimisations  :  7536
 total energy-change (2. order) :-0.4069633E-05  (-0.3634073E-06)
 number of electron      16.0000006 magnetization 
 augmentation part        4.1136518 magnetization 

 Broyden mixing:
  rms(total) = 0.44934E-03    rms(broyden)= 0.44918E-03
  rms(prec ) = 0.47510E-03
  weight for this iteration     100.00

 eigenvalues of (default mixing * dielectric matrix)
  average eigenvalue GAMMA=   1.7375
  2.6720  2.3343  0.9835  1.4298  1.2681

 Free energy of the ion-electron system (eV)
  ---------------------------------------------------
  alpha Z        PSCENC =       174.98728600
  Ewald energy   TEWEN  =     -2224.22396084
  -Hartree energ DENC   =      -343.92625826
  -exchange      EXHF   =         0.00000000
  -V(xc)+E(xc)   XCENC  =        63.58998557
  PAW double counting   =      2545.50328437    -2513.73806027
  entropy T*S    EENTRO =        -0.00204522
  eigenvalues    EBANDS =      -136.21724878
  atomic energy  EATOM  =      2428.19501064
  Solvation  Ediel_sol  =         0.00000000
  ---------------------------------------------------
  free energy    TOTEN  =        -5.83200681 eV

  energy without entropy =       -5.82996159  energy(sigma->0) =       -5.83098420


--------------------------------------------------------------------------------------------------------




--------------------------------------- Iteration      1(  11)  ---------------------------------------


    POTLOK:  cpu time      0.0021: real time      0.0021
    SETDIJ:  cpu time      0.0018: real time      0.0018
     EDDAV:  cpu time      0.2563: real time      0.2578
       DOS:  cpu time      0.0005: real time      0.0005
    --------------------------------------------
      LOOP:  cpu time      0.2607: real time      0.2622

 eigenvalue-minimisations  :  3384
 total energy-change (2. order) : 0.2283286E-07  (-0.4160374E-09)
 number of electron      16.0000006 magnetization 
 augmentation part        4.1136518 magnetization 

 Free energy of the ion-electron system (eV)
  ---------------------------------------------------
  alpha Z        PSCENC =       174.98728600
  Ewald energy   TEWEN  =     -2224.22396084
  -Hartree energ DENC   =      -343.92596736
  -exchange      EXHF   =         0.00000000
  -V(xc)+E(xc)   XCENC  =        63.58996432
  PAW double counting   =      2545.40880590    -2513.64343381
  entropy T*S    EENTRO =        -0.00204522
  eigenvalues    EBANDS =      -136.21766641
  atomic energy  EATOM  =      2428.19501064
  Solvation  Ediel_sol  =         0.00000000
  ---------------------------------------------------
  free energy    TOTEN  =        -5.83200679 eV

  energy without entropy =       -5.82996157  energy(sigma->0) =       -5.83098418


--------------------------------------------------------------------------------------------------------




 average (electrostatic) potential at core
  the test charge radii are     0.9952
  (the norm of the test charge is              1.0000)
       1 -87.0878
 
 
 
 E-fermi :  14.0771     XC(G=0): -14.6321     alpha+bet :-19.1321

 Fermi energy:        14.0770788547

 k-point     1 :       0.0500    0.0500    0.0500
  band No.  band energies     occupation 
      1     -38.8085      2.00000
      2     -38.7943      2.00000
      3     -38.7943      2.00000
      4       2.8009      2.00000
      5       9.5637      2.00000
      6       9.6654      2.00000
      7       9.6654      2.00000
      8      12.1209      2.00000
      9      12.1209      2.00000
     10      28.5308      0.00000
     11      33.2928      0.00000
     12      34.0338      0.00000
     13      34.0338      0.00000
     14      40.2505      0.00000
     15      46.6722      0.00000
     16      47.4392      0.00000
     17      47.4392      0.00000
     18      51.4247      0.00000
     19      51.4247      0.00000
     20      52.4145      0.00000
     21      54.3511      0.00000
     22      57.8869      0.00000
     23      57.8869      0.00000
     24      64.8941      0.00000

 k-point     2 :       0.1500    0.0500    0.0500
  band No.  band energies     occupation 
      1     -38.8891      2.00000
      2     -38.8176      2.00000
      3     -38.8004      2.00000
      4       3.3763      2.00000
      5       9.2863      2.00000
      6       9.8740      2.00000
      7       9.9210      2.00000
      8      11.8448      2.00000
      9      12.1837      2.00000
     10      29.4327      0.00000
     11      31.5835      0.00000
     12      34.3106      0.00000
     13      35.2923      0.00000
     14      41.6420      0.00000
     15      43.9984      0.00000
     16      44.5993      0.00000
     17      46.3568      0.00000
     18      49.4642      0.00000
     19      52.8607      0.00000
     20      54.3525      0.00000
     21      55.2429      0.00000
     22      56.5137      0.00000
     23      59.0753      0.00000
     24      65.6462      0.00000

 k-point     3 :       0.2500    0.0500    0.0500
  band No.  band energies     occupation 
      1     -39.0681      2.00000
      2     -38.8489      2.00000
      3     -38.8235      2.00000
      4       4.5801      2.00000
      5       9.0299      2.00000
      6      10.0902      2.00000
      7      10.1356      2.00000
      8      11.8145      2.00000
      9      12.4877      2.00000
     10      28.8416      0.00000
     11      30.7486      0.00000
     12      35.8094      0.00000
     13      37.6977      0.00000
     14      38.0280      0.00000
     15      41.4335      0.00000
     16      41.9485      0.00000
     17      48.1829      0.00000
     18      49.7600      0.00000
     19      53.3815      0.00000
     20      54.3422      0.00000
     21      55.1207      0.00000
     22      58.2009      0.00000
     23      59.6186      0.00000
     24      65.9844      0.00000

 k-point     4 :       0.3500    0.0500    0.0500
  band No.  band energies     occupation 
      1     -39.2685      2.00000
      2     -38.8792      2.00000
      3     -38.8544      2.00000
      4       5.5626      2.00000
      5       9.7151      2.00000
      6       9.9079      2.00000
      7       9.9437      2.00000
      8      12.5959      2.00000
      9      13.3703      2.00000
     10      25.6889      0.00000
     11      29.8687      0.00000
     12      35.4908      0.00000
     13      37.7824      0.00000
     14      38.5623      0.00000
     15      40.7550      0.00000
     16      41.0947      0.00000
     17      50.0676      0.00000
     18      52.4581      0.00000
     19      54.3205      0.00000
     20      54.3639      0.00000
     21      55.3386      0.00000
     22      58.4518      0.00000
     23      60.2708      0.00000
     24      65.0428      0.00000

 k-point     5 :       0.4500    0.0500    0.0500
  band No.  band energies     occupation 
      1     -39.4153      2.00000
      2     -38.8981      2.00000
      3     -38.8800      2.00000
      4       5.7493      2.00000
      5       9.5590      2.00000
      6       9.6766      2.00000
      7      11.6875      2.00000
      8      13.6150      2.00000
      9      14.3840      0.00000
     10      22.1749      0.00000
     11      28.4976      0.00000
     12      33.7018      0.00000
     13      34.7562      0.00000
     14      42.0034      0.00000
     15      43.4188      0.00000
     16      43.7207      0.00000
     17      50.4782      0.00000
     18      52.1137      0.00000
     19      53.1303      0.00000
     20      54.3469      0.00000
     21      57.7356      0.00000
     22      60.6021      0.00000
     23      60.6172      0.00000
     24      62.1093      0.00000

 k-point     6 :      -0.4500    0.0500    0.0500
  band No.  band energies     occupation 
      1     -39.4564      2.00000
      2     -38.8985      2.00000
      3     -38.8920      2.00000
      4       5.7359      2.00000
      5       9.4521      2.00000
      6       9.6155      2.00000
      7      12.4899      2.00000
      8      14.1236      0.18822
      9      14.7842      0.00000
     10      20.6957      0.00000
     11      28.1455      0.00000
     12      33.5190      0.00000
     13      33.5355      0.00000
     14      43.6924      0.00000
     15      43.9691      0.00000
     16      45.4211      0.00000
     17      50.5260      0.00000
     18      51.1415      0.00000
     19      51.8414      0.00000
     20      54.3439      0.00000
     21      58.8008      0.00000
     22      59.3677      0.00000
     23      61.9713      0.00000
     24      62.5882      0.00000

 k-point     7 :      -0.3500    0.0500    0.0500
  band No.  band energies     occupation 
      1     -39.3766      2.00000
      2     -38.8856      2.00000
      3     -38.8809      2.00000
      4       5.7360      2.00000
      5       9.6056      2.00000
      6       9.7906      2.00000
      7      10.9710      2.00000
      8      13.6527      2.00000
      9      13.7657      2.00000
     10      23.2905      0.00000
     11      28.8514      0.00000
     12      34.4027      0.00000
     13      35.2935      0.00000
     14      41.6300      0.00000
     15      41.7629      0.00000
     16      42.9641      0.00000
     17      49.8628      0.00000
     18      53.2088      0.00000
     19      53.7600      0.00000
     20      54.3480      0.00000
     21      57.7066      0.00000
     22      58.4915      0.00000
     23      60.8365      0.00000
     24      62.9396      0.00000

 k-point     8 :      -0.2500    0.0500    0.0500
  band No.  band energies     occupation 
      1     -39.2045      2.00000
      2     -38.8631      2.00000
      3     -38.8509      2.00000
      4       5.3285      2.00000
      5       9.3158      2.00000
      6       9.9440      2.00000
      7      10.0687      2.00000
      8      12.4143      2.00000
      9      12.9121      2.00000
     10      26.8188      0.00000
     11      30.4087      0.00000
     12      36.3345      0.00000
     13      37.3593      0.00000
     14      39.3664      0.00000
     15      39.6115      0.00000
     16      40.5435      0.00000
     17      49.6365      0.00000
     18      51.9865      0.00000
     19      53.5396      0.00000
     20      54.3414      0.00000
     21      55.9776      0.00000
     22      57.0986      0.00000
     23      60.8006      0.00000
     24      66.2647      0.00000

 k-point     9 :      -0.1500    0.0500    0.0500
  band No.  band energies     occupation 
      1     -39.0014      2.00000
      2     -38.8323      2.00000
      3     -38.8207      2.00000
      4       4.1457      2.00000
      5       9.0427      2.00000
      6      10.0836      2.00000
      7      10.1114      2.00000
      8      11.7496      2.00000
      9      12.3084      2.00000
     10      29.7986      0.00000
     11      30.4533      0.00000
     12      35.4611      0.00000
     13      36.3290      0.00000
     14      39.6591      0.00000
     15      41.7524      0.00000
     16      43.6500      0.00000
     17      46.6230      0.00000
     18      49.5298      0.00000
     19      53.5999      0.00000
     20      54.3452      0.00000
     21      55.6673      0.00000
     22      56.4508      0.00000
     23      60.0206      0.00000
     24      65.8766      0.00000

 k-point    10 :      -0.0500    0.0500    0.0500
  band No.  band energies     occupation 
      1     -38.8446      2.00000
      2     -38.8064      2.00000
      3     -38.8021      2.00000
      4       3.0949      2.00000
      5       9.3758      2.00000
      6       9.8081      2.00000
      7       9.8173      2.00000
      8      11.8929      2.00000
      9      12.2112      2.00000
     10      29.0089      0.00000
     11      32.5270      0.00000
     12      34.1477      0.00000
     13      34.3977      0.00000
     14      41.6539      0.00000
     15      44.8268      0.00000
     16      45.2201      0.00000
     17      47.5344      0.00000
     18      49.1590      0.00000
     19      53.4735      0.00000
     20      54.0255      0.00000
     21      54.3565      0.00000
     22      56.2655      0.00000
     23      59.0936      0.00000
     24      65.4659      0.00000

 k-point    11 :       0.1500    0.1500    0.0500
  band No.  band energies     occupation 
      1     -38.9071      2.00000
      2     -38.8297      2.00000
      3     -38.8249      2.00000
      4       3.6605      2.00000
      5       9.0110      2.00000
      6      10.1090      2.00000
      7      10.1174      2.00000
      8      11.4941      2.00000
      9      12.3860      2.00000
     10      29.9119      0.00000
     11      31.8504      0.00000
     12      34.2349      0.00000
     13      34.5860      0.00000
     14      42.2425      0.00000
     15      43.0604      0.00000
     16      44.5957      0.00000
     17      45.7939      0.00000
     18      48.0743      0.00000
     19      53.7590      0.00000
     20      54.3464      0.00000
     21      55.6693      0.00000
     22      55.7465      0.00000
     23      60.0880      0.00000
     24      66.8806      0.00000

 k-point    12 :       0.2500    0.1500    0.0500
  band No.  band energies     occupation 
      1     -39.0323      2.00000
      2     -38.8741      2.00000
      3     -38.8427      2.00000
      4       4.6691      2.00000
      5       8.5951      2.00000
      6      10.2297      2.00000
      7      10.5398      2.00000
      8      11.3619      2.00000
      9      12.7181      2.00000
     10      30.2242      0.00000
     11      31.2564      0.00000
     12      34.0682      0.00000
     13      35.4596      0.00000
     14      39.3601      0.00000
     15      41.8085      0.00000
     16      43.6320      0.00000
     17      47.2390      0.00000
     18      48.2629      0.00000
     19      52.4682      0.00000
     20      54.3338      0.00000
     21      54.8169      0.00000
     22      58.6766      0.00000
     23      61.5714      0.00000
     24      66.8622      0.00000

 k-point    13 :       0.3500    0.1500    0.0500
  band No.  band energies     occupation 
      1     -39.2074      2.00000
      2     -38.9143      2.00000
      3     -38.8717      2.00000
      4       5.8463      2.00000
      5       8.6653      2.00000
      6       9.7195      2.00000
      7      10.5467      2.00000
      8      12.3612      2.00000
      9      13.5803      2.00000
     10      27.1947      0.00000
     11      31.0139      0.00000
     12      33.6938      0.00000
     13      35.5332      0.00000
     14      39.9416      0.00000
     15      40.9258      0.00000
     16      42.8313      0.00000
     17      46.4909      0.00000
     18      51.9947      0.00000
     19      53.9637      0.00000
     20      54.3276      0.00000
     21      54.5684      0.00000
     22      58.6080      0.00000
     23      63.0229      0.00000
     24      64.6848      0.00000

[...]
     13      36.2867      0.00000
     14      40.8889      0.00000
     15      42.4082      0.00000
     16      45.3347      0.00000
     17      50.3046      0.00000
     18      51.0171      0.00000
     19      53.9813      0.00000
     20      54.3464      0.00000
     21      56.2374      0.00000
     22      59.0937      0.00000
     23      61.6029      0.00000
     24      62.9202      0.00000

 k-point   100 :      -0.3500   -0.3500    0.2500
  band No.  band energies     occupation 
      1     -39.3237      2.00000
      2     -39.1787      2.00000
      3     -38.9911      2.00000
      4       6.7548      2.00000
      5       7.6962      2.00000
      6      10.6491      2.00000
      7      12.4132      2.00000
      8      13.8969      2.00000
      9      20.2089      0.00000
     10      20.9910      0.00000
     11      25.3999      0.00000
     12      29.5061      0.00000
     13      34.8927      0.00000
     14      42.0577      0.00000
     15      42.2258      0.00000
     16      43.6836      0.00000
     17      52.1784      0.00000
     18      53.0362      0.00000
     19      53.3759      0.00000
     20      54.3438      0.00000
     21      55.8327      0.00000
     22      58.5028      0.00000
     23      60.2596      0.00000
     24      62.4733      0.00000

 k-point   101 :       0.3500    0.3500    0.3500
  band No.  band energies     occupation 
      1     -39.3298      2.00000
      2     -38.8691      2.00000
      3     -38.8691      2.00000
      4       5.5907      2.00000
      5       9.7869      2.00000
      6       9.7869      2.00000
      7      10.5399      2.00000
      8      13.2364      2.00000
      9      13.2364      2.00000
     10      24.4592      0.00000
     11      29.1847      0.00000
     12      35.9553      0.00000
     13      35.9553      0.00000
     14      40.4501      0.00000
     15      41.1211      0.00000
     16      41.1211      0.00000
     17      51.9284      0.00000
     18      51.9284      0.00000
     19      53.7986      0.00000
     20      54.3449      0.00000
     21      57.0435      0.00000
     22      59.1398      0.00000
     23      59.1398      0.00000
     24      65.2819      0.00000

 k-point   102 :       0.4500    0.3500    0.3500
  band No.  band energies     occupation 
      1     -39.3650      2.00000
      2     -38.9323      2.00000
      3     -38.8753      2.00000
      4       6.0232      2.00000
      5       9.4628      2.00000
      6       9.9478      2.00000
      7      10.5175      2.00000
      8      13.0393      2.00000
      9      14.8583      0.00000
     10      23.3808      0.00000
     11      29.2655      0.00000
     12      32.8730      0.00000
     13      35.9143      0.00000
     14      39.8156      0.00000
     15      43.2562      0.00000
     16      44.0648      0.00000
     17      49.0393      0.00000
     18      52.3622      0.00000
     19      54.3451      0.00000
     20      54.4556      0.00000
     21      55.8138      0.00000
     22      59.7519      0.00000
     23      60.7066      0.00000
     24      62.3460      0.00000

 k-point   103 :      -0.4500    0.3500    0.3500
  band No.  band energies     occupation 
      1     -39.3488      2.00000
      2     -39.0586      2.00000
      3     -38.9066      2.00000
      4       6.9762      2.00000
      5       8.7910      2.00000
      6       9.8699      2.00000
      7      10.6419      2.00000
      8      12.9941      2.00000
      9      16.9209      0.00000
     10      22.7132      0.00000
     11      28.7342      0.00000
     12      31.3886      0.00000
     13      34.6805      0.00000
     14      39.5857      0.00000
     15      42.9206      0.00000
     16      46.9204      0.00000
     17      50.5654      0.00000
     18      52.0415      0.00000
     19      53.3879      0.00000
     20      54.2091      0.00000
     21      54.3547      0.00000
     22      57.7743      0.00000
     23      62.4515      0.00000
     24      63.2135      0.00000

 k-point   104 :      -0.3500    0.3500    0.3500
  band No.  band energies     occupation 
      1     -39.2838      2.00000
      2     -39.2036      2.00000
      3     -38.9509      2.00000
      4       7.2924      2.00000
      5       8.4479      2.00000
      6       9.6108      2.00000
      7      11.6183      2.00000
      8      13.2425      2.00000
      9      18.4771      0.00000
     10      23.1228      0.00000
     11      25.4226      0.00000
     12      32.2035      0.00000
     13      33.2122      0.00000
     14      40.8459      0.00000
     15      42.1678      0.00000
     16      45.2021      0.00000
     17      52.8703      0.00000
     18      53.4309      0.00000
     19      54.1065      0.00000
     20      54.3449      0.00000
     21      55.8633      0.00000
     22      56.1511      0.00000
     23      58.6679      0.00000
     24      64.2428      0.00000

 k-point   105 :       0.4500    0.4500    0.3500
  band No.  band energies     occupation 
      1     -39.4040      2.00000
      2     -38.9157      2.00000
      3     -38.9034      2.00000
      4       6.0017      2.00000
      5       9.3055      2.00000
      6       9.9529      2.00000
      7      10.8727      2.00000
      8      14.0989      0.53779
      9      14.8441      0.00000
     10      22.1300      0.00000
     11      28.9456      0.00000
     12      33.2484      0.00000
     13      34.1017      0.00000
     14      42.1219      0.00000
     15      43.5173      0.00000
     16      44.4195      0.00000
     17      48.0737      0.00000
     18      53.0717      0.00000
     19      53.9078      0.00000
     20      54.3457      0.00000
     21      56.3254      0.00000
     22      60.0364      0.00000
     23      60.9574      0.00000
     24      62.2372      0.00000

 k-point   106 :      -0.4500    0.4500    0.3500
  band No.  band energies     occupation 
      1     -39.3921      2.00000
      2     -39.0076      2.00000
      3     -38.9211      2.00000
      4       6.6337      2.00000
      5       8.7718      2.00000
      6      10.2537      2.00000
      7      10.5405      2.00000
      8      13.8051      2.00000
      9      17.0690      0.00000
     10      21.1660      0.00000
     11      29.5710      0.00000
     12      30.9931      0.00000
     13      33.7908      0.00000
     14      41.3916      0.00000
     15      43.7376      0.00000
     16      46.9103      0.00000
     17      48.1828      0.00000
     18      51.9576      0.00000
     19      54.2512      0.00000
     20      54.3589      0.00000
     21      54.4101      0.00000
     22      58.0726      0.00000
     23      62.1997      0.00000
     24      63.8909      0.00000

 k-point   107 :      -0.3500    0.4500    0.3500
  band No.  band energies     occupation 
      1     -39.3338      2.00000
      2     -39.1322      2.00000
      3     -38.9634      2.00000
      4       7.4442      2.00000
      5       8.1960      2.00000
      6       9.5826      2.00000
      7      11.3574      2.00000
      8      13.7175      2.00000
      9      19.2071      0.00000
     10      20.9740      0.00000
     11      27.5389      0.00000
     12      30.0754      0.00000
     13      34.4488      0.00000
     14      40.5593      0.00000
     15      43.9093      0.00000
     16      46.2191      0.00000
     17      49.1891      0.00000
     18      50.6223      0.00000
     19      54.3413      0.00000
     20      56.0243      0.00000
     21      56.2567      0.00000
     22      56.6502      0.00000
     23      60.5010      0.00000
     24      63.0665      0.00000

 k-point   108 :      -0.4500   -0.4500    0.3500
  band No.  band energies     occupation 
      1     -39.3870      2.00000
      2     -39.0430      2.00000
      3     -38.9349      2.00000
      4       6.7762      2.00000
      5       8.6046      2.00000
      6      10.2230      2.00000
      7      10.6942      2.00000
      8      13.9936      1.98182
      9      18.2025      0.00000
     10      20.2288      0.00000
     11      29.0964      0.00000
     12      32.0663      0.00000
     13      32.2136      0.00000
     14      42.5018      0.00000
     15      42.8818      0.00000
     16      46.3935      0.00000
     17      48.5749      0.00000
     18      52.3596      0.00000
     19      54.2929      0.00000
     20      54.3487      0.00000
     21      54.9947      0.00000
     22      57.5175      0.00000
     23      61.6473      0.00000
     24      64.2870      0.00000

 k-point   109 :       0.4500    0.4500    0.4500
  band No.  band energies     occupation 
      1     -39.4475      2.00000
      2     -38.8858      2.00000
      3     -38.8858      2.00000
      4       5.6507      2.00000
      5       9.5640      2.00000
      6       9.5640      2.00000
      7      12.7151      2.00000
      8      14.0016      1.96715
      9      14.0016      1.96715
     10      21.2682      0.00000
     11      28.0882      0.00000
     12      33.9215      0.00000
     13      33.9215      0.00000
     14      43.5953      0.00000
     15      43.5953      0.00000
     16      44.3286      0.00000
     17      51.4362      0.00000
     18      51.4362      0.00000
     19      51.5670      0.00000
     20      54.3435      0.00000
     21      60.0469      0.00000
     22      60.0469      0.00000
     23      61.7940      0.00000
     24      62.1439      0.00000

 k-point   110 :      -0.4500    0.4500    0.4500
  band No.  band energies     occupation 
      1     -39.4408      2.00000
      2     -38.9353      2.00000
      3     -38.8979      2.00000
      4       6.0005      2.00000
      5       9.2415      2.00000
      6       9.8269      2.00000
      7      11.6704      2.00000
      8      13.9568      1.99933
      9      15.9349      0.00000
     10      20.6058      0.00000
     11      28.6327      0.00000
     12      32.6227      0.00000
     13      33.6172      0.00000
     14      43.0575      0.00000
     15      43.6247      0.00000
     16      46.1448      0.00000
     17      50.6208      0.00000
     18      51.5082      0.00000
     19      51.7226      0.00000
     20      54.3452      0.00000
     21      57.1470      0.00000
     22      57.7991      0.00000
     23      62.5723      0.00000
     24      62.9260      0.00000


--------------------------------------------------------------------------------------------------------


 soft charge-density along one line, spin component           1
         0         1         2         3         4         5         6         7         8         9
 total charge-density along one line
 
 pseudopotential strength for first ion, spin component:           1
-30.805  -0.000  -0.000   9.856   0.000   0.000  -0.000   0.000
 -0.000 -30.805  -0.000   0.000   9.856   0.000   0.000  -0.000
 -0.000  -0.000 -30.805   0.000   0.000   9.856  -0.000  -0.000
  9.856   0.000   0.000  16.603  -0.000  -0.000   0.000  -0.000
  0.000   9.856   0.000  -0.000  16.603  -0.000  -0.000   0.000
  0.000   0.000   9.856  -0.000  -0.000  16.603   0.000   0.000
 -0.000   0.000  -0.000   0.000  -0.000   0.000  -3.140   0.000
  0.000  -0.000  -0.000  -0.000   0.000   0.000   0.000  -3.140
  0.000  -0.000   0.000  -0.000  -0.000   0.000   0.000  -0.000
 -0.000  -0.000   0.000   0.000   0.000  -0.000   0.000   0.000
  0.000  -0.000  -0.000  -0.000   0.000   0.000  -0.000   0.000
 -0.000   0.000  -0.000   0.000  -0.000   0.000  -3.300   0.000
  0.000  -0.000   0.000  -0.000   0.000  -0.000   0.000  -3.300
  0.000   0.000   0.000  -0.000  -0.000  -0.000   0.000  -0.000
  0.000  -0.000   0.000  -0.000   0.000  -0.000   0.000   0.000
  0.000  -0.000  -0.000  -0.000   0.000   0.000  -0.000   0.000
  0.000  -0.000   0.000   0.000  -0.000   0.000   0.000   0.000
 -0.000  -0.000  -0.000  -0.000   0.000  -0.000  -0.000  -0.000
 total augmentation occupancy for first ion, spin component:           1
  2.003   0.000  -0.000  -0.022   0.000  -0.000   0.000   0.000   0.000   0.000   0.000   0.000   0.000   0.000   0.000   0.000
  0.000   2.003  -0.000  -0.000  -0.022   0.000   0.000   0.000   0.000   0.000   0.000   0.000   0.000   0.000   0.000   0.000
  0.000  -0.000   2.003   0.000   0.000  -0.022   0.000   0.000   0.000   0.000   0.000   0.000   0.000   0.000   0.000   0.000
 -0.022   0.000  -0.000   0.063   0.000   0.000   0.000   0.000   0.000   0.000   0.000   0.000   0.000   0.000   0.000   0.000
  0.000  -0.022   0.000   0.000   0.063  -0.000   0.000   0.000   0.000   0.000   0.000   0.000   0.000   0.000   0.000   0.000
  0.000   0.000  -0.022  -0.000   0.000   0.063   0.000   0.000   0.000   0.000   0.000   0.000   0.000   0.000   0.000   0.000
  0.000   0.000   0.000   0.000   0.000   0.000   7.036   0.000  -0.000  -0.000   0.000  -4.369  -0.000  -0.000   0.000  -0.000
  0.000   0.000   0.000   0.000   0.000   0.000  -0.000   7.036   0.000   0.000  -0.000  -0.000  -4.369   0.000   0.000   0.000
  0.000   0.000   0.000   0.000   0.000   0.000  -0.000   0.000   5.834  -0.000   0.000   0.000   0.000  -3.575  -0.000  -0.000
  0.000   0.000   0.000   0.000   0.000   0.000  -0.000  -0.000  -0.000   7.036  -0.000   0.000  -0.000   0.000  -4.369   0.000
  0.000   0.000   0.000   0.000   0.000   0.000   0.000  -0.000   0.000  -0.000   5.834   0.000   0.000  -0.000   0.000  -3.575
  0.000   0.000   0.000   0.000   0.000   0.000  -4.369  -0.000   0.000   0.000  -0.000   3.489   0.000   0.000  -0.000   0.000
  0.000   0.000   0.000   0.000   0.000   0.000  -0.000  -4.369   0.000   0.000   0.000  -0.000   3.489   0.000   0.000   0.000
  0.000   0.000   0.000   0.000   0.000   0.000   0.000   0.000  -3.575   0.000  -0.000  -0.000   0.000   3.204  -0.000   0.000
  0.000   0.000   0.000   0.000   0.000   0.000   0.000   0.000   0.000  -4.369   0.000  -0.000   0.000   0.000   3.489   0.000
  0.000   0.000   0.000   0.000   0.000   0.000   0.000   0.000  -0.000   0.000  -3.575   0.000   0.000   0.000   0.000   3.204
  0.000   0.000   0.000   0.000   0.000   0.000   0.000   0.000  -0.000  -0.000  -0.000   0.000   0.000  -0.000   0.000  -0.000
  0.000   0.000   0.000   0.000   0.000   0.000   0.000   0.000  -0.000  -0.000   0.000  -0.000   0.000   0.000  -0.000   0.000


------------------------ aborting loop because EDIFF is reached ----------------------------------------





 total charge

# of ion       s       p       d       tot
------------------------------------------
    1        0.373   6.118   7.106  13.596
 
    CHARGE:  cpu time      0.0114: real time      0.0115
    FORLOC:  cpu time      0.0002: real time      0.0002
    FORNL :  cpu time      0.0060: real time      0.0060
    STRESS:  cpu time      0.1069: real time      0.1076
    FORCOR:  cpu time      0.0017: real time      0.0017
    FORHAR:  cpu time      0.0003: real time      0.0003
    MIXING:  cpu time      0.0002: real time      0.0002
    OFIELD:  cpu time      0.0000: real time      0.0000

  FORCE on cell =-STRESS in cart. coord.  units (eV):
  Direction    XX          YY          ZZ          XY          YZ          ZX
  --------------------------------------------------------------------------------------
  Alpha Z   174.98729   174.98729   174.98729
  Ewald    -741.40801  -741.40801  -741.40801     0.00000    -0.00000     0.00000
  Hartree   114.64108   114.64108   114.64108     0.00000     0.00000     0.00000
  E(xc)     -86.05627   -86.05627   -86.05627     0.00000     0.00000     0.00000
  Local     144.56939   144.56939   144.56939    -0.00003    -0.00003    -0.00003
  n-local   -27.53948   -24.37822   -30.28405     3.48885    -3.33393     0.11742
  augment    73.26759    73.26759    73.26759     0.00003     0.00003     0.00003
  Kinetic   350.09285   356.24904   347.19595     4.99211    -4.41260    -0.61442
  Fock        0.00000     0.00000     0.00000     0.00000     0.00000     0.00000
  -------------------------------------------------------------------------------------
  Total       3.77976     3.77976     3.77976     0.00000     0.00000    -0.00000
  in kB     441.66568   441.66568   441.66568     0.00000     0.00000    -0.00000
  external pressure =      441.67 kB  Pullay stress =        0.00 kB


 VOLUME and BASIS-vectors are now :
 -----------------------------------------------------------------------------
  energy-cutoff  :      425.00
  volume of cell :       13.71
      direct lattice vectors                 reciprocal lattice vectors
     0.000000000  1.899694684  1.899694684    -0.263200189  0.263200189  0.263200189
     1.899694684  0.000000000  1.899694684     0.263200189 -0.263200189  0.263200189
     1.899694684  1.899694684  0.000000000     0.263200189  0.263200189 -0.263200189

  length of vectors
     2.686573987  2.686573987  2.686573987     0.455876100  0.455876100  0.455876100


 FORCES acting on ions
    electron-ion (+dipol)            ewald-force                    non-local-force                 convergence-correction
 -----------------------------------------------------------------------------------------------
   -.538E-14 -.526E-14 0.470E-15   0.498E-14 -.569E-14 0.458E-14   0.258E-25 0.000E+00 -.258E-25   -.619E-14 -.998E-14 0.300E-13
 -----------------------------------------------------------------------------------------------
   -.538E-14 -.526E-14 0.470E-15   0.498E-14 -.569E-14 0.458E-14   0.258E-25 0.000E+00 -.258E-25   -.619E-14 -.998E-14 0.300E-13
 
 
 POSITION                                       TOTAL-FORCE (eV/Angst)
 -----------------------------------------------------------------------------------
      0.00000      0.00000      0.00000        -0.000000      0.000000      0.000000
 -----------------------------------------------------------------------------------
    total drift:                               -0.000000     -0.000000      0.000000


--------------------------------------------------------------------------------------------------------



  FREE ENERGIE OF THE ION-ELECTRON SYSTEM (eV)
  ---------------------------------------------------
  free  energy   TOTEN  =        -5.83200679 eV

  energy  without entropy=       -5.82996157  energy(sigma->0) =       -5.83098418
 


--------------------------------------------------------------------------------------------------------


    POTLOK:  cpu time      0.0040: real time      0.0040


--------------------------------------------------------------------------------------------------------




--------------------------------------------------------------------------------------------------------


  
 reached required accuracy - stopping structural energy minimisation
 writing wavefunctions
     LOOP+:  cpu time      6.7770: real time      7.1468
    4ORBIT:  cpu time      0.0000: real time      0.0000



 total charge

# of ion       s       p       d       tot
------------------------------------------
    1        0.373   6.118   7.106  13.596
 

 total amount of memory used by VASP MPI-rank0    35610. kBytes
=======================================================================

   base      :      30000. kBytes
   nonl-proj :       4566. kBytes
   fftplans  :        113. kBytes
   grid      :        367. kBytes
   one-center:         15. kBytes
   wavefun   :        549. kBytes
 
  
  
 General timing and accounting informations for this job:
 ========================================================
  
                  Total CPU time used (sec):        7.893
                            User time (sec):        7.424
                          System time (sec):        0.469
                         Elapsed time (sec):        9.702
  
                   Maximum memory used (kb):      224896.
                   Average memory used (kb):          N/A
  
                          Minor page faults:        25385
                          Major page faults:           62
                 Voluntary context switches:         2555
