Pt-hcc                                  
   1.00000000000000     
     2.477675    0.000000    0.000000
    -1.238837    2.145729    0.000000
     0.000000    0.000000    4.292514
   Pt
     2
Direct
  0.000000  0.000000  0.000000
  0.333333  0.666667  0.500000
 
   36   36   60
  200.49      200.24      199.06      195.79      189.01      177.59      161.16      140.45      117.14      93.480    
  71.701      53.469      39.565      29.857      23.522      19.419      16.809      15.382      14.931      15.382    
  16.809      19.419      23.522      29.857      39.565      53.469      71.701      93.480      117.14      140.45    
  161.16      177.59      189.01      195.79      199.06      200.24      200.24      200.24      199.52      197.27    
  192.18      182.95      168.83      150.03      127.80      104.15      81.364      61.413      45.506      33.926    
  26.147      21.131      17.855      15.891      14.980      14.980      15.891      17.855      21.131      26.147    
  33.926      45.506      61.413      81.364      104.15      127.80      150.03      168.83      182.95      192.18    
  197.27      199.52      199.06      199.53      199.06      197.27      193.14      185.45      173.26      156.38    
  135.62      112.65      89.643      68.673      51.260      38.065      28.887      22.888      18.966      16.469    
  15.105      14.674      15.105      16.469      18.966      22.888      28.887      38.065      51.260      68.673    
  89.643      112.65      135.62      156.38      173.26      185.45      193.14      197.27      195.79      197.29    
  197.29      195.79      192.18      185.45      174.69      159.52      140.36      118.53      95.954      74.666    
  56.348      41.948      31.574      24.624      20.080      17.084      15.292      14.461      14.461      15.292    
  17.084      20.080      24.624      31.574      41.948      56.348      74.666      95.954      118.53      140.36    
  159.52      174.69      185.45      192.18      189.01      192.21      193.18      192.21      189.01      182.95    
  173.26      159.52      141.94      121.53      99.891      78.925      60.330      45.231      33.989      26.240    
  21.125      17.694      15.516      14.328      13.953      14.328      15.516      17.694      21.125      26.240    
  33.989      45.231      60.330      78.925      99.891      121.53      141.94      159.52      173.26      182.95    
  177.59      182.98      185.51      185.51      182.98      177.59      168.83      156.38      140.36      121.53    
  101.23      81.134      62.864      47.610      35.910      27.611      22.031      18.253      15.750      14.256    
  13.565      13.565      14.256      15.750      18.253      22.031      27.611      35.910      47.610      62.864    
  81.134      101.23      121.53      140.36      156.38      168.83      161.16      168.87      173.32      174.77    
  173.32      168.87      161.16      150.03      135.62      118.53      99.891      81.134      63.733      48.859    
  37.147      28.610      22.739      18.717      15.966      14.226      13.278      12.979      13.278      14.226    
  15.966      18.717      22.739      28.610      37.147      48.859      63.733      81.134      99.891      118.53    
  135.62      150.03      140.45      150.06      156.43      159.59      159.59      156.43      150.06      140.45    
  127.80      112.65      95.954      78.925      62.864      48.859      37.574      29.138      23.191      19.048    
  16.140      14.220      13.075      12.545      12.545      13.075      14.220      16.140      19.048      23.191    
  29.138      37.574      48.859      62.864      78.925      95.954      112.65      127.80      117.14      127.81    
  135.65      140.41      142.00      140.41      135.65      127.81      117.14      104.15      89.643      74.666    
  60.330      47.610      37.147      29.138      23.347      19.221      16.252      14.224      12.941      12.240    
  12.019      12.240      12.941      14.224      16.252      19.221      23.347      29.138      37.147      47.610    
  60.330      74.666      89.643      104.15      93.480      104.14      112.66      118.55      121.55      121.55    
  118.55      112.66      104.14      93.480      81.364      68.673      56.348      45.231      35.910      28.610    
  23.191      19.221      16.291      14.228      12.864      12.046      11.666      11.666      12.046      12.864    
  14.228      16.291      19.221      23.191      28.610      35.910      45.231      56.348      68.673      81.364    
  71.701      81.342      89.612      95.922      99.862      101.20      99.862      95.922      89.612      81.342    
  71.701      61.413      51.260      41.948      33.989      27.611      22.739      19.048      16.252      14.228    
  12.839      11.952      11.464      11.308      11.464      11.952      12.839      14.228      16.252      19.048    
  22.739      27.611      33.989      41.948      51.260      61.413      53.469      61.380      68.616      74.595    
  78.848      81.054      81.054      78.848      74.595      68.616      61.380      53.469      45.506      38.065    
  31.574      26.240      22.031      18.717      16.140      14.224      12.864      11.952      11.398      11.137    
  11.137      11.398      11.952      12.864      14.224      16.140      18.717      22.031      26.240      31.574    
  38.065      45.506      39.565      45.468      51.188      56.250      60.216      62.740      63.606      62.740    
  60.216      56.250      51.188      45.468      39.565      33.926      28.887      24.624      21.125      18.253    
  15.966      14.220      12.941      12.046      11.464      11.137      11.032      11.137      11.464      12.046    
  12.941      14.220      15.966      18.253      21.125      24.624      28.887      33.926      29.857      33.888    
  37.990      41.840      45.098      47.460      48.701      48.701      47.460      45.098      41.840      37.990    
  33.888      29.857      26.147      22.888      20.080      17.694      15.750      14.226      13.075      12.240    
  11.666      11.308      11.137      11.137      11.308      11.666      12.240      13.075      14.226      15.750    
  17.694      20.080      22.888      26.147      23.522      26.113      28.818      31.470      33.855      35.754    
  36.977      37.399      36.977      35.754      33.855      31.470      28.818      26.113      23.522      21.131    
  18.966      17.084      15.516      14.256      13.278      12.545      12.019      11.666      11.464      11.398    
  11.464      11.666      12.019      12.545      13.278      14.256      15.516      17.084      18.966      21.131    
  19.419      21.104      22.830      24.534      26.120      27.467      28.449      28.967      28.967      28.449    
  27.467      26.120      24.534      22.830      21.104      19.419      17.855      16.469      15.292      14.328    
  13.565      12.979      12.545      12.240      12.046      11.952      11.952      12.046      12.240      12.545    
  12.979      13.565      14.328      15.292      16.469      17.855      16.809      17.834      18.920      20.007    
  21.026      21.910      22.600      23.041      23.193      23.041      22.600      21.910      21.026      20.007    
  18.920      17.834      16.809      15.891      15.105      14.461      13.953      13.565      13.278      13.075    
  12.941      12.864      12.839      12.864      12.941      13.075      13.278      13.565      13.953      14.461    
  15.105      15.891      15.382      15.873      16.433      17.028      17.617      18.157      18.605      18.926    
  19.092      19.092      18.926      18.605      18.157      17.617      17.028      16.433      15.873      15.382    
  14.980      14.674      14.461      14.328      14.256      14.226      14.220      14.224      14.228      14.228    
  14.224      14.220      14.226      14.256      14.328      14.461      14.674      14.980      14.931      14.965    
  15.075      15.247      15.456      15.677      15.881      16.046      16.152      16.189      16.152      16.046    
  15.881      15.677      15.456      15.247      15.075      14.965      14.931      14.980      15.105      15.292    
  15.516      15.750      15.966      16.140      16.252      16.291      16.252      16.140      15.966      15.750    
  15.516      15.292      15.105      14.980      15.382      14.965      14.647      14.423      14.280      14.199    
  14.162      14.150      14.150      14.152      14.152      14.150      14.150      14.162      14.199      14.280    
  14.423      14.647      14.965      15.382      15.891      16.469      17.084      17.694      18.253      18.717    
  19.048      19.221      19.221      19.048      18.717      18.253      17.694      17.084      16.469      15.891    
  16.809      15.873      15.075      14.423      13.908      13.517      13.228      13.024      12.888      12.810    
  12.785      12.810      12.888      13.024      13.228      13.517      13.908      14.423      15.075      15.873    
  16.809      17.855      18.966      20.080      21.125      22.031      22.739      23.191      23.347      23.191    
  22.739      22.031      21.125      20.080      18.966      17.855      19.419      17.834      16.433      15.247    
  14.280      13.517      12.934      12.503      12.200      12.008      11.915      11.915      12.008      12.200    
  12.503      12.934      13.517      14.280      15.247      16.433      17.834      19.419      21.131      22.888    
  24.624      26.240      27.611      28.610      29.138      29.138      28.610      27.611      26.240      24.624    
  22.888      21.131      23.522      21.104      18.920      17.028      15.456      14.199      13.228      12.503    
  11.983      11.636      11.437      11.372      11.437      11.636      11.983      12.503      13.228      14.199    
  15.456      17.028      18.920      21.104      23.522      26.147      28.887      31.574      33.989      35.910    
  37.147      37.574      37.147      35.910      33.989      31.574      28.887      26.147      29.857      26.113    
  22.830      20.007      17.617      15.677      14.162      13.024      12.200      11.636      11.285      11.117    
  11.117      11.285      11.636      12.200      13.024      14.162      15.677      17.617      20.007      22.830    
  26.113      29.857      33.926      38.065      41.948      45.231      47.610      48.859      48.859      47.610    
  45.231      41.948      38.065      33.926      39.565      33.888      28.818      24.534      21.026      18.157    
  15.881      14.150      12.888      12.008      11.437      11.117      11.014      11.117      11.437      12.008    
  12.888      14.150      15.881      18.157      21.026      24.534      28.818      33.888      39.565      45.506    
  51.260      56.348      60.330      62.864      63.733      62.864      60.330      56.348      51.260      45.506    
  53.469      45.468      37.990      31.470      26.120      21.910      18.605      16.046      14.150      12.810    
  11.915      11.372      11.117      11.117      11.372      11.915      12.810      14.150      16.046      18.605    
  21.910      26.120      31.470      37.990      45.468      53.469      61.413      68.673      74.666      78.925    
  81.134      81.134      78.925      74.666      68.673      61.413      71.701      61.380      51.188      41.840    
  33.855      27.467      22.600      18.926      16.152      14.152      12.785      11.915      11.437      11.285    
  11.437      11.915      12.785      14.152      16.152      18.926      22.600      27.467      33.855      41.840    
  51.188      61.380      71.701      81.364      89.643      95.954      99.891      101.23      99.891      95.954    
  89.643      81.364      93.480      81.342      68.616      56.250      45.098      35.754      28.449      23.041    
  19.092      16.189      14.152      12.810      12.008      11.636      11.636      12.008      12.810      14.152    
  16.189      19.092      23.041      28.449      35.754      45.098      56.250      68.616      81.342      93.480    
  104.15      112.65      118.53      121.53      121.53      118.53      112.65      104.15      117.14      104.14    
  89.612      74.595      60.216      47.460      36.977      28.967      23.193      19.092      16.152      14.150    
  12.888      12.200      11.983      12.200      12.888      14.150      16.152      19.092      23.193      28.967    
  36.977      47.460      60.216      74.595      89.612      104.14      117.14      127.80      135.62      140.36    
  141.94      140.36      135.62      127.80      140.45      127.81      112.66      95.922      78.848      62.740    
  48.701      37.399      28.967      23.041      18.926      16.046      14.150      13.024      12.503      12.503    
  13.024      14.150      16.046      18.926      23.041      28.967      37.399      48.701      62.740      78.848    
  95.922      112.66      127.81      140.45      150.03      156.38      159.52      159.52      156.38      150.03    
  161.16      150.06      135.65      118.55      99.862      81.054      63.606      48.701      36.977      28.449    
  22.600      18.605      15.881      14.162      13.228      12.934      13.228      14.162      15.881      18.605    
  22.600      28.449      36.977      48.701      63.606      81.054      99.862      118.55      135.65      150.06    
  161.16      168.83      173.26      174.69      173.26      168.83      177.59      168.87      156.43      140.41    
  121.55      101.20      81.054      62.740      47.460      35.754      27.467      21.910      18.157      15.677    
  14.199      13.517      13.517      14.199      15.677      18.157      21.910      27.467      35.754      47.460    
  62.740      81.054      101.20      121.55      140.41      156.43      168.87      177.59      182.95      185.45    
  185.45      182.95      189.01      182.98      173.32      159.59      142.00      121.55      99.862      78.848    
  60.216      45.098      33.855      26.120      21.026      17.617      15.456      14.280      13.908      14.280    
  15.456      17.617      21.026      26.120      33.855      45.098      60.216      78.848      99.862      121.55    
  142.00      159.59      173.32      182.98      189.01      192.18      193.14      192.18      195.79      192.21    
  185.51      174.77      159.59      140.41      118.55      95.922      74.595      56.250      41.840      31.470    
  24.534      20.007      17.028      15.247      14.423      14.423      15.247      17.028      20.007      24.534    
  31.470      41.840      56.250      74.595      95.922      118.55      140.41      159.59      174.77      185.51    
  192.21      195.79      197.27      197.27      199.06      197.29      193.18      185.51      173.32      156.43    
  135.65      112.66      89.612      68.616      51.188      37.990      28.818      22.830      18.920      16.433    
  15.075      14.647      15.075      16.433      18.920      22.830      28.818      37.990      51.188      68.616    
  89.612      112.66      135.65      156.43      173.32      185.51      193.18      197.29      199.06      199.52    
  200.24      199.53      197.29      192.21      182.98      168.87      150.06      127.81      104.14      81.342    
  61.380      45.468      33.888      26.113      21.104      17.834      15.873      14.965      14.965      15.873    
  17.834      21.104      26.113      33.888      45.468      61.380      81.342      104.14      127.81      150.06    
  168.87      182.98      192.21      197.29      199.53      200.24      200.36      200.05      198.70      195.19    
  188.14      176.46      159.86      139.09      115.83      92.315      70.747      52.747      39.057      29.516    
  23.290      19.246      16.673      15.267      14.823      15.267      16.673      19.246      23.290      29.516    
  39.057      52.747      70.747      92.315      115.83      139.09      159.86      176.46      188.14      195.19    
  198.70      200.05      200.05      200.05      199.21      196.75      191.40      181.92      167.59      148.68    
  126.45      102.90      80.306      60.582      44.900      33.511      25.869      20.932      17.702      15.766    
  14.869      14.869      15.766      17.702      20.932      25.869      33.511      44.900      60.582      80.306    
  102.90      126.45      148.68      167.59      181.92      191.40      196.75      199.21      198.70      199.22    
  198.70      196.75      192.41      184.48      172.07      155.05      134.25      111.36      88.506      67.750    
  50.566      37.577      28.559      22.662      18.796      16.334      14.991      14.566      14.991      16.334    
  18.796      22.662      28.559      37.577      50.566      67.750      88.506      111.36      134.25      155.05    
  172.07      184.48      192.41      196.75      195.19      196.77      196.77      195.19      191.40      184.48    
  173.52      158.20      138.99      117.21      94.763      73.674      55.580      41.395      31.196      24.368    
  19.892      16.939      15.172      14.354      14.354      15.172      16.939      19.892      24.368      31.196    
  41.395      55.580      73.674      94.763      117.21      138.99      158.20      173.52      184.48      191.40    
  188.14      191.44      192.45      191.44      188.14      181.92      172.07      158.20      140.58      120.19    
  98.670      77.887      59.508      44.625      33.567      25.954      20.921      17.538      15.391      14.221    
  13.851      14.221      15.391      17.538      20.921      25.954      33.567      44.625      59.508      77.887    
  98.670      120.19      140.58      158.20      172.07      181.92      176.46      181.95      184.54      184.54    
  181.95      176.46      167.59      155.05      138.99      120.19      99.998      80.073      62.009      46.967    
  35.454      27.299      21.813      18.088      15.620      14.148      13.467      13.467      14.148      15.620    
  18.088      21.813      27.299      35.454      46.967      62.009      80.073      99.998      120.19      138.99    
  155.05      167.59      159.86      167.63      172.14      173.61      172.14      167.63      159.86      148.68    
  134.25      117.21      98.670      80.073      62.867      48.197      36.669      28.280      22.509      18.544    
  15.832      14.116      13.182      12.888      13.182      14.116      15.832      18.544      22.509      28.280    
  36.669      48.197      62.867      80.073      98.670      117.21      134.25      148.68      139.09      148.71    
  155.11      158.29      158.29      155.11      148.71      139.09      126.45      111.36      94.763      77.887    
  62.009      48.197      37.089      28.797      22.953      18.870      16.002      14.109      12.981      12.458    
  12.458      12.981      14.109      16.002      18.870      22.953      28.797      37.089      48.197      62.009    
  77.887      94.763      111.36      126.45      115.83      126.46      134.29      139.05      140.65      139.05    
  134.29      126.46      115.83      102.90      88.506      73.674      59.508      46.967      36.669      28.797    
  23.106      19.040      16.111      14.111      12.846      12.155      11.937      12.155      12.846      14.111    
  16.111      19.040      23.106      28.797      36.669      46.967      59.508      73.674      88.506      102.90    
  92.315      102.90      111.37      117.23      120.23      120.23      117.23      111.37      102.90      92.315    
  80.306      67.750      55.580      44.625      35.454      28.280      22.953      19.040      16.149      14.115    
  12.769      11.963      11.588      11.588      11.963      12.769      14.115      16.149      19.040      22.953    
  28.280      35.454      44.625      55.580      67.750      80.306      70.747      80.289      88.485      94.746    
  98.659      99.989      98.659      94.746      88.485      80.289      70.747      60.582      50.566      41.395    
  33.567      27.299      22.509      18.870      16.111      14.115      12.744      11.869      11.387      11.234    
  11.387      11.869      12.744      14.115      16.111      18.870      22.509      27.299      33.567      41.395    
  50.566      60.582      52.747      60.554      67.704      73.618      77.828      80.014      80.014      77.828    
  73.617      67.704      60.554      52.747      44.900      37.577      31.196      25.954      21.813      18.544    
  16.002      14.111      12.769      11.869      11.322      11.064      11.064      11.322      11.869      12.769    
  14.111      16.002      18.544      21.813      25.954      31.196      37.577      44.900      39.057      44.867    
  50.504      55.498      59.412      61.906      62.762      61.906      59.412      55.498      50.504      44.867    
  39.057      33.511      28.559      24.368      20.921      18.088      15.832      14.109      12.846      11.963    
  11.387      11.064      10.960      11.064      11.387      11.963      12.846      14.109      15.832      18.088    
  20.921      24.368      28.559      33.511      29.516      33.478      37.512      41.301      44.510      46.837    
  48.061      48.061      46.837      44.510      41.301      37.512      33.478      29.516      25.869      22.662    
  19.892      17.538      15.620      14.116      12.981      12.155      11.588      11.234      11.064      11.064    
  11.234      11.588      12.155      12.981      14.116      15.620      17.538      19.892      22.662      25.869    
  23.290      25.840      28.499      31.105      33.450      35.318      36.522      36.937      36.522      35.318    
  33.450      31.105      28.499      25.840      23.290      20.932      18.796      16.939      15.391      14.148    
  13.182      12.458      11.937      11.588      11.387      11.322      11.387      11.588      11.937      12.458    
  13.182      14.148      15.391      16.939      18.796      20.932      19.246      20.909      22.612      24.290    
  25.851      27.175      28.140      28.650      28.650      28.140      27.175      25.851      24.290      22.613    
  20.909      19.246      17.702      16.334      15.172      14.221      13.467      12.888      12.458      12.155    
  11.963      11.869      11.869      11.963      12.155      12.458      12.888      13.467      14.221      15.172    
  16.334      17.702      16.673      17.685      18.757      19.831      20.838      21.710      22.391      22.825    
  22.975      22.825      22.391      21.710      20.838      19.831      18.757      17.685      16.673      15.766    
  14.991      14.354      13.851      13.467      13.182      12.981      12.846      12.769      12.744      12.769    
  12.846      12.981      13.182      13.467      13.851      14.354      14.991      15.766      15.267      15.753    
  16.305      16.893      17.475      18.009      18.452      18.768      18.933      18.933      18.768      18.452    
  18.009      17.475      16.893      16.305      15.753      15.267      14.869      14.566      14.354      14.221    
  14.148      14.116      14.109      14.111      14.115      14.115      14.111      14.109      14.116      14.148    
  14.221      14.354      14.566      14.869      14.823      14.858      14.968      15.138      15.345      15.563    
  15.765      15.928      16.033      16.069      16.033      15.928      15.765      15.563      15.345      15.138    
  14.968      14.858      14.823      14.869      14.991      15.172      15.391      15.620      15.832      16.002    
  16.111      16.149      16.111      16.002      15.832      15.620      15.391      15.172      14.991      14.869    
  15.267      14.858      14.546      14.326      14.186      14.107      14.071      14.059      14.059      14.061    
  14.061      14.059      14.059      14.071      14.107      14.186      14.326      14.546      14.858      15.267    
  15.766      16.334      16.939      17.538      18.088      18.544      18.870      19.040      19.040      18.870    
  18.544      18.088      17.538      16.939      16.334      15.766      16.673      15.753      14.968      14.326    
  13.820      13.434      13.150      12.948      12.813      12.737      12.712      12.737      12.813      12.948    
  13.150      13.434      13.820      14.326      14.968      15.753      16.673      17.702      18.796      19.892    
  20.921      21.813      22.509      22.953      23.106      22.953      22.509      21.813      20.921      19.892    
  18.796      17.702      19.246      17.685      16.305      15.138      14.186      13.434      12.859      12.434    
  12.135      11.946      11.853      11.853      11.946      12.135      12.434      12.859      13.434      14.186    
  15.138      16.305      17.685      19.246      20.932      22.662      24.368      25.954      27.299      28.280    
  28.797      28.797      28.280      27.299      25.954      24.368      22.662      20.932      23.290      20.909    
  18.757      16.893      15.345      14.107      13.150      12.434      11.921      11.578      11.381      11.317    
  11.381      11.578      11.921      12.434      13.150      14.107      15.345      16.893      18.757      20.909    
  23.290      25.869      28.559      31.196      33.567      35.454      36.669      37.089      36.669      35.454    
  33.567      31.196      28.559      25.869      29.516      25.840      22.612      19.831      17.475      15.563    
  14.071      12.948      12.135      11.578      11.231      11.065      11.065      11.231      11.578      12.135    
  12.948      14.071      15.563      17.475      19.831      22.613      25.840      29.516      33.511      37.577    
  41.395      44.625      46.967      48.197      48.197      46.967      44.625      41.395      37.577      33.511    
  39.057      33.478      28.499      24.290      20.838      18.009      15.765      14.059      12.813      11.946    
  11.381      11.065      10.964      11.065      11.381      11.946      12.813      14.059      15.765      18.009    
  20.838      24.290      28.499      33.478      39.057      44.900      50.566      55.580      59.508      62.009    
  62.867      62.009      59.508      55.580      50.566      44.900      52.747      44.867      37.512      31.105    
  25.851      21.710      18.452      15.928      14.059      12.737      11.853      11.317      11.065      11.065    
  11.317      11.853      12.737      14.059      15.928      18.452      21.710      25.851      31.105      37.512    
  44.867      52.747      60.582      67.750      73.674      77.887      80.073      80.073      77.887      73.674    
  67.750      60.582      70.747      60.554      50.504      41.301      33.450      27.175      22.391      18.768    
  16.033      14.061      12.712      11.853      11.381      11.231      11.381      11.853      12.712      14.061    
  16.033      18.768      22.391      27.175      33.450      41.301      50.504      60.554      70.747      80.306    
  88.506      94.763      98.670      99.998      98.670      94.763      88.506      80.306      92.315      80.289    
  67.704      55.498      44.510      35.318      28.140      22.825      18.933      16.069      14.061      12.737    
  11.946      11.578      11.578      11.946      12.737      14.061      16.069      18.933      22.825      28.140    
  35.318      44.510      55.498      67.704      80.289      92.315      102.90      111.36      117.21      120.19    
  120.19      117.21      111.36      102.90      115.83      102.90      88.485      73.618      59.412      46.837    
  36.522      28.650      22.975      18.933      16.033      14.059      12.813      12.135      11.921      12.135    
  12.813      14.059      16.033      18.933      22.975      28.650      36.522      46.837      59.412      73.617    
  88.485      102.90      115.83      126.45      134.25      138.99      140.58      138.99      134.25      126.45    
  139.09      126.46      111.37      94.746      77.828      61.906      48.061      36.937      28.650      22.825    
  18.768      15.928      14.059      12.948      12.434      12.434      12.948      14.059      15.928      18.768    
  22.825      28.650      36.937      48.061      61.906      77.828      94.746      111.37      126.46      139.09    
  148.68      155.05      158.20      158.20      155.05      148.68      159.86      148.71      134.29      117.23    
  98.659      80.014      62.762      48.061      36.522      28.140      22.391      18.452      15.765      14.071    
  13.150      12.859      13.150      14.071      15.765      18.452      22.391      28.140      36.522      48.061    
  62.762      80.014      98.659      117.23      134.29      148.71      159.86      167.59      172.07      173.52    
  172.07      167.59      176.46      167.63      155.11      139.05      120.23      99.989      80.014      61.906    
  46.837      35.318      27.175      21.710      18.009      15.563      14.107      13.434      13.434      14.107    
  15.563      18.009      21.710      27.175      35.318      46.837      61.906      80.014      99.989      120.23    
  139.05      155.11      167.63      176.46      181.92      184.48      184.48      181.92      188.14      181.95    