Pt-hcc                                  
   1.00000000000000     
     2.477675    0.000000    0.000000
    -1.238837    2.145729    0.000000
     0.000000    0.000000    4.292514
   Pt
     2
Direct
  0.000000  0.000000  0.000000
  0.333333  0.666667  0.500000
 
   36   36   60
 0.20049312804E+03 0.20024367121E+03 0.19905902566E+03 0.19579127387E+03 0.18901354716E+03
 0.17758567812E+03 0.16116113111E+03 0.14045119916E+03 0.11714097517E+03 0.93480431612E+02
 0.71700621859E+02 0.53468852538E+02 0.39565430782E+02 0.29857474966E+02 0.23522344855E+02
 0.19419429846E+02 0.16808883289E+02 0.15382320992E+02 0.14931445711E+02 0.15382321098E+02
 0.16808883417E+02 0.19419429879E+02 0.23522344714E+02 0.29857474677E+02 0.39565430485E+02
 0.53468852434E+02 0.71700622126E+02 0.93480432319E+02 0.11714097622E+03 0.14045120034E+03
 0.16116113213E+03 0.17758567876E+03 0.18901354734E+03 0.19579127368E+03 0.19905902531E+03
 0.20024367096E+03 0.20024367096E+03 0.20024366530E+03 0.19952033153E+03 0.19726749153E+03
 0.19217618795E+03 0.18294522908E+03 0.16882969049E+03 0.15003404583E+03 0.12780031804E+03
 0.10414908044E+03 0.81364444511E+02 0.61413430297E+02 0.45505815815E+02 0.33926022395E+02
 0.26146785003E+02 0.21130853381E+02 0.17855062026E+02 0.15890615751E+02 0.14979944382E+02
 0.14979943734E+02 0.15890614229E+02 0.17855060648E+02 0.21130853152E+02 0.26146786293E+02
 0.33926024644E+02 0.45505817816E+02 0.61413430916E+02 0.81364443524E+02 0.10414907901E+03
 0.12780031857E+03 0.15003405105E+03 0.16882970227E+03 0.18294524726E+03 0.19217620993E+03
 0.19726751281E+03 0.19952034700E+03 0.19905902531E+03 0.19952725884E+03 0.19905900787E+03
 0.19726748276E+03 0.19314213293E+03 0.18544997759E+03 0.17325562392E+03 0.15637884481E+03
 0.13561924026E+03 0.11265481378E+03 0.89643460463E+02 0.68672928831E+02 0.51259939290E+02
 0.38065049351E+02 0.28887263574E+02 0.22888364345E+02 0.18966101597E+02 0.16469025022E+02
 0.15105186570E+02 0.14674190323E+02 0.15105184377E+02 0.16469022069E+02 0.18966099909E+02
 0.22888365302E+02 0.28887267001E+02 0.38065053463E+02 0.51259941613E+02 0.68672927704E+02
 0.89643456391E+02 0.11265480982E+03 0.13561924115E+03 0.15637885506E+03 0.17325564555E+03
 0.18545000872E+03 0.19314216766E+03 0.19726751281E+03 0.19579127368E+03 0.19728564977E+03
 0.19728564106E+03 0.19579125019E+03 0.19217617858E+03 0.18544997816E+03 0.17469367775E+03
 0.15951578650E+03 0.14035901294E+03 0.11853369561E+03 0.95953529469E+02 0.74665678991E+02
 0.56347672615E+02 0.41947832226E+02 0.31573554985E+02 0.24623940460E+02 0.20079867837E+02
 0.17084320762E+02 0.15291566717E+02 0.14461130932E+02 0.14461129462E+02 0.15291563233E+02
 0.17084317510E+02 0.20079867063E+02 0.24623943018E+02 0.31573559662E+02 0.41947836204E+02
 0.56347672976E+02 0.74665674474E+02 0.95953521688E+02 0.11853368888E+03 0.14035901280E+03
 0.15951579722E+03 0.17469370020E+03 0.18545000872E+03 0.19217620993E+03 0.18901354734E+03
 0.19220556925E+03 0.19318275116E+03 0.19220555971E+03 0.18901353171E+03 0.18294523110E+03
 0.17325563426E+03 0.15951579404E+03 0.14194303755E+03 0.12152722875E+03 0.99890951650E+02
 0.78924916020E+02 0.60330077220E+02 0.45231395250E+02 0.33988629281E+02 0.26240067325E+02
 0.21124620863E+02 0.17694376594E+02 0.15515683734E+02 0.14327823745E+02 0.13952646017E+02
 0.14327821138E+02 0.15515680092E+02 0.17694374170E+02 0.21124621291E+02 0.26240070574E+02
 0.33988633465E+02 0.45231397423E+02 0.60330074882E+02 0.78924908521E+02 0.99890940911E+02
 0.12152721871E+03 0.14194303263E+03 0.15951579722E+03 0.17325564555E+03 0.18294524726E+03
 0.17758567876E+03 0.18298136275E+03 0.18550861043E+03 0.18550861073E+03 0.18298136413E+03
 0.17758568229E+03 0.16882970905E+03 0.15637886537E+03 0.14035902574E+03 0.12152723228E+03
 0.10122763797E+03 0.81133559358E+02 0.62863612578E+02 0.47610453142E+02 0.35909628533E+02
 0.27610880066E+02 0.22031109579E+02 0.18253253907E+02 0.15749879072E+02 0.14256040326E+02
 0.13564724107E+02 0.13564723069E+02 0.14256037770E+02 0.15749876396E+02 0.18253252607E+02
 0.22031110442E+02 0.27610882643E+02 0.35909631214E+02 0.47610453732E+02 0.62863609253E+02
 0.81133551416E+02 0.10122762622E+03 0.12152721871E+03 0.14035901280E+03 0.15637885506E+03
 0.16882970227E+03 0.16116113213E+03 0.16886506448E+03 0.17332038432E+03 0.17476977255E+03
 0.17332039395E+03 0.16886508192E+03 0.16116115419E+03 0.15003407401E+03 0.13561926164E+03
 0.11853370455E+03 0.99890950871E+02 0.81133556076E+02 0.63732524645E+02 0.48859476911E+02
 0.37146816729E+02 0.28610182799E+02 0.22739031724E+02 0.18716888180E+02 0.15966178008E+02
 0.14226101396E+02 0.13278467491E+02 0.12979180053E+02 0.13278466696E+02 0.14226100086E+02
 0.15966176677E+02 0.18716887399E+02 0.22739031947E+02 0.28610184101E+02 0.37146818642E+02
 0.48859478302E+02 0.63732523902E+02 0.81133551416E+02 0.99890940911E+02 0.11853368888E+03
 0.13561924115E+03 0.15003405105E+03 0.14045120034E+03 0.15006055140E+03 0.15643430384E+03
 0.15958975341E+03 0.15958976056E+03 0.15643432337E+03 0.15006057828E+03 0.14045122804E+03
 0.12780034120E+03 0.11265482385E+03 0.95953526624E+02 0.78924906512E+02 0.62863603876E+02
 0.48859472962E+02 0.37573929803E+02 0.29137502625E+02 0.23191441374E+02 0.19048174781E+02
 0.16139830034E+02 0.14220074401E+02 0.13075494261E+02 0.12545453543E+02 0.12545453870E+02
 0.13075494947E+02 0.14220074752E+02 0.16139829533E+02 0.19048173572E+02 0.23191440436E+02
 0.29137503300E+02 0.37573933021E+02 0.48859478302E+02 0.62863609253E+02 0.78924908521E+02
 0.95953521688E+02 0.11265480982E+03 0.12780031857E+03 0.11714097622E+03 0.12781179585E+03
 0.13565142493E+03 0.14040996851E+03 0.14200146037E+03 0.14040998080E+03 0.13565144543E+03
 0.12781181795E+03 0.11714099326E+03 0.10414908658E+03 0.89643453753E+02 0.74665664328E+02
 0.60330062001E+02 0.47610442759E+02 0.37146812426E+02 0.29137502101E+02 0.23347217898E+02
 0.19220656799E+02 0.16251866686E+02 0.14223851844E+02 0.12940785305E+02 0.12240432801E+02
 0.12018820213E+02 0.12240434675E+02 0.12940787802E+02 0.14223853248E+02 0.16251865973E+02
 0.19220654451E+02 0.23347215983E+02 0.29137503300E+02 0.37146818642E+02 0.47610453732E+02
 0.60330074882E+02 0.74665674474E+02 0.89643456391E+02 0.10414907901E+03 0.93480432319E+02
 0.10414305228E+03 0.11265544503E+03 0.11854613641E+03 0.12154827045E+03 0.12154827395E+03
 0.11854614525E+03 0.11265545486E+03 0.10414305798E+03 0.93480430151E+02 0.81364432737E+02
 0.68672910777E+02 0.56347654550E+02 0.45231382272E+02 0.35909622492E+02 0.28610182164E+02
 0.23191443080E+02 0.19220658254E+02 0.16290533821E+02 0.14228043730E+02 0.12863886493E+02
 0.12046475493E+02 0.11666139923E+02 0.11666141410E+02 0.12046479045E+02 0.12863889959E+02
 0.14228044904E+02 0.16290531894E+02 0.19220654451E+02 0.23191440436E+02 0.28610184101E+02
 0.35909631214E+02 0.45231397423E+02 0.56347672976E+02 0.68672927704E+02 0.81364443524E+02
 0.71700622126E+02 0.81342494725E+02 0.89611980041E+02 0.95921752136E+02 0.99862481609E+02
 0.10120095291E+03 0.99862481286E+02 0.95921749997E+02 0.89611973966E+02 0.81342483213E+02
 0.71700605388E+02 0.61413411170E+02 0.51259922504E+02 0.41947821445E+02 0.33988625537E+02
 0.27610881636E+02 0.22739035818E+02 0.19048178958E+02 0.16251869657E+02 0.14228045161E+02
 0.12838882107E+02 0.11952214497E+02 0.11463828076E+02 0.11308407353E+02 0.11463830964E+02
 0.11952218614E+02 0.12838885009E+02 0.14228044904E+02 0.16251865973E+02 0.19048173572E+02
 0.22739031947E+02 0.27610882643E+02 0.33988633465E+02 0.41947836204E+02 0.51259941613E+02
 0.61413430916E+02 0.53468852434E+02 0.61380268342E+02 0.68615839554E+02 0.74594581331E+02
 0.78847508589E+02 0.81054186180E+02 0.81054183334E+02 0.78847500232E+02 0.74594568128E+02
 0.68615822785E+02 0.61380249960E+02 0.53468834931E+02 0.45505803730E+02 0.38065044788E+02
 0.31573557196E+02 0.26240073535E+02 0.22031116850E+02 0.18716894488E+02 0.16139834805E+02
 0.14223855270E+02 0.12863888730E+02 0.11952215507E+02 0.11397919350E+02 0.11137087979E+02
 0.11137089206E+02 0.11397922386E+02 0.11952218614E+02 0.12863889959E+02 0.14223853248E+02
 0.16139829533E+02 0.18716887399E+02 0.22031110442E+02 0.26240070574E+02 0.31573559662E+02
 0.38065053463E+02 0.45505817816E+02 0.39565430485E+02 0.45467536478E+02 0.51188050782E+02
 0.56250093702E+02 0.60215548693E+02 0.62739907156E+02 0.63605977138E+02 0.62739899372E+02
 0.60215535008E+02 0.56250077317E+02 0.51188035371E+02 0.45467525213E+02 0.39565425296E+02
 0.33926025872E+02 0.28887273446E+02 0.24623952505E+02 0.21124631455E+02 0.18253261254E+02
 0.15966182592E+02 0.14220077555E+02 0.12940788008E+02 0.12046477674E+02 0.11463829200E+02
 0.11137088045E+02 0.11032005400E+02 0.11137089206E+02 0.11463830964E+02 0.12046479045E+02
 0.12940787802E+02 0.14220074752E+02 0.15966176677E+02 0.18253252607E+02 0.21124621291E+02
 0.24623943018E+02 0.28887267001E+02 0.33926024644E+02 0.29857474677E+02 0.33888280599E+02
 0.37989898848E+02 0.41839860044E+02 0.45097989405E+02 0.47460161931E+02 0.48700882147E+02
 0.48700878549E+02 0.47460152485E+02 0.45097977664E+02 0.41839850454E+02 0.37989895179E+02
 0.33888284605E+02 0.29857485666E+02 0.26146801513E+02 0.22888381282E+02 0.20079880575E+02
 0.17694383371E+02 0.15749881210E+02 0.14226101564E+02 0.13075494748E+02 0.12240434121E+02
 0.11666141158E+02 0.11308407399E+02 0.11137088045E+02 0.11137087979E+02 0.11308407353E+02
 0.11666141410E+02 0.12240434675E+02 0.13075494947E+02 0.14226100086E+02 0.15749876396E+02
 0.17694374170E+02 0.20079867063E+02 0.22888365302E+02 0.26146786293E+02 0.23522344714E+02
 0.26113483074E+02 0.28818034244E+02 0.31469723742E+02 0.33855034230E+02 0.35753577754E+02
 0.36976956539E+02 0.37399428588E+02 0.36976952425E+02 0.35753572021E+02 0.33855030810E+02
 0.31469726207E+02 0.28818044277E+02 0.26113499692E+02 0.23522364683E+02 0.21130872120E+02
 0.18966114044E+02 0.17084325087E+02 0.15515681604E+02 0.14256035481E+02 0.13278463510E+02
 0.12545451915E+02 0.12018820206E+02 0.11666141158E+02 0.11463829200E+02 0.11397919350E+02
 0.11463828076E+02 0.11666139923E+02 0.12018820213E+02 0.12545453870E+02 0.13278466696E+02
 0.14256037770E+02 0.15515680092E+02 0.17084317510E+02 0.18966099909E+02 0.21130853152E+02
 0.19419429879E+02 0.21103621151E+02 0.22830155920E+02 0.24533883367E+02 0.26120460253E+02
 0.27466833180E+02 0.28448855146E+02 0.28967269123E+02 0.28967268423E+02 0.28448854028E+02
 0.27466834078E+02 0.26120465759E+02 0.24533894820E+02 0.22830172468E+02 0.21103639714E+02
 0.19419446241E+02 0.17855071214E+02 0.16469025098E+02 0.15291559418E+02 0.14327813354E+02
 0.13564714999E+02 0.12979174626E+02 0.12545451915E+02 0.12240434121E+02 0.12046477674E+02
 0.11952215507E+02 0.11952214497E+02 0.12046475493E+02 0.12240432801E+02 0.12545453543E+02
 0.12979180053E+02 0.13564723069E+02 0.14327821138E+02 0.15291563233E+02 0.16469022069E+02
 0.17855060648E+02 0.16808883417E+02 0.17833577419E+02 0.18919785684E+02 0.20007127173E+02
 0.21026097128E+02 0.21909778467E+02 0.22599930472E+02 0.23041104945E+02 0.23193044160E+02
 0.23041105935E+02 0.22599933337E+02 0.21909784328E+02 0.21026106466E+02 0.20007139032E+02
 0.18919797665E+02 0.17833586425E+02 0.16808886676E+02 0.15890610435E+02 0.15105174451E+02
 0.14461116282E+02 0.13952633295E+02 0.13564714999E+02 0.13278463510E+02 0.13075494748E+02
 0.12940788008E+02 0.12863888730E+02 0.12838882107E+02 0.12863886493E+02 0.12940785305E+02
 0.13075494261E+02 0.13278467491E+02 0.13564724107E+02 0.13952646017E+02 0.14461129462E+02
 0.15105184377E+02 0.15890614229E+02 0.15382321098E+02 0.15873467773E+02 0.16432684218E+02
 0.17027553570E+02 0.17617241843E+02 0.18157370561E+02 0.18605422400E+02 0.18925581679E+02
 0.19092278776E+02 0.19092279805E+02 0.18925584717E+02 0.18605427208E+02 0.18157376476E+02
 0.17617247589E+02 0.17027557389E+02 0.16432684198E+02 0.15873462500E+02 0.15382310400E+02
 0.14979928961E+02 0.14674174072E+02 0.14461116282E+02 0.14327813354E+02 0.14256035481E+02
 0.14226101564E+02 0.14220077555E+02 0.14223855270E+02 0.14228045161E+02 0.14228043730E+02
 0.14223851844E+02 0.14220074401E+02 0.14226101396E+02 0.14256040326E+02 0.14327823745E+02
 0.14461130932E+02 0.14674190323E+02 0.14979943734E+02 0.14931445711E+02 0.14965106868E+02
 0.15075380960E+02 0.15246733314E+02 0.15456149905E+02 0.15676657835E+02 0.15881133899E+02
 0.16045664230E+02 0.16151949395E+02 0.16188652507E+02 0.16151951733E+02 0.16045667975E+02
 0.15881137437E+02 0.15676659254E+02 0.15456147557E+02 0.15246726239E+02 0.15075369257E+02
 0.14965091755E+02 0.14931429241E+02 0.14979928961E+02 0.15105174451E+02 0.15291559418E+02
 0.15515681604E+02 0.15749881210E+02 0.15966182592E+02 0.16139834805E+02 0.16251869657E+02
 0.16290533821E+02 0.16251866686E+02 0.16139830034E+02 0.15966178008E+02 0.15749879072E+02
 0.15515683734E+02 0.15291566717E+02 0.15105186570E+02 0.14979944382E+02 0.15382320992E+02
 0.14965106109E+02 0.14646649629E+02 0.14422622618E+02 0.14279701824E+02 0.14199465052E+02
 0.14162277979E+02 0.14150433761E+02 0.14150118040E+02 0.14152192811E+02 0.14152194095E+02
 0.14150121110E+02 0.14150436567E+02 0.14162278043E+02 0.14199460490E+02 0.14279692069E+02
 0.14422608767E+02 0.14646634084E+02 0.14965091755E+02 0.15382310400E+02 0.15890610435E+02
 0.16469025098E+02 0.17084325087E+02 0.17694383371E+02 0.18253261254E+02 0.18716894488E+02
 0.19048178958E+02 0.19220658254E+02 0.19220656799E+02 0.19048174781E+02 0.18716888180E+02
 0.18253253907E+02 0.17694376594E+02 0.17084320762E+02 0.16469025022E+02 0.15890615751E+02
 0.16808883289E+02 0.15873466001E+02 0.15075378605E+02 0.14422621102E+02 0.13908460183E+02
 0.13516889834E+02 0.13228203809E+02 0.13023513121E+02 0.12887578865E+02 0.12809915966E+02
 0.12784648942E+02 0.12809918319E+02 0.12887581852E+02 0.13023514120E+02 0.13228200588E+02
 0.13516881669E+02 0.13908448443E+02 0.14422608767E+02 0.15075369257E+02 0.15873462500E+02
 0.16808886676E+02 0.17855071214E+02 0.18966114044E+02 0.20079880575E+02 0.21124631455E+02
 0.22031116850E+02 0.22739035818E+02 0.23191443080E+02 0.23347217898E+02 0.23191441374E+02
 0.22739031724E+02 0.22031109579E+02 0.21124620863E+02 0.20079867837E+02 0.18966101597E+02
 0.17855062026E+02 0.19419429846E+02 0.17833575852E+02 0.16432681045E+02 0.15246729710E+02
 0.14279699238E+02 0.13516888881E+02 0.12933560666E+02 0.12502639424E+02 0.12200138716E+02
 0.12007972101E+02 0.11914619013E+02 0.11914620229E+02 0.12007974869E+02 0.12200140908E+02
 0.12502638815E+02 0.12933556247E+02 0.13516881669E+02 0.14279692069E+02 0.15246726239E+02
 0.16432684198E+02 0.17833586425E+02 0.19419446241E+02 0.21130872120E+02 0.22888381282E+02
 0.24623952505E+02 0.26240073535E+02 0.27610881636E+02 0.28610182164E+02 0.29137502101E+02
 0.29137502625E+02 0.28610182799E+02 0.27610880066E+02 0.26240067325E+02 0.24623940460E+02
 0.22888364345E+02 0.21130853381E+02 0.23522344855E+02 0.21103620988E+02 0.18919783870E+02
 0.17027550161E+02 0.15456146244E+02 0.14199462671E+02 0.13228203274E+02 0.12502639926E+02
 0.11982913729E+02 0.11635573494E+02 0.11436558421E+02 0.11371756129E+02 0.11436560074E+02
 0.11635575627E+02 0.11982914726E+02 0.12502638815E+02 0.13228200588E+02 0.14199460490E+02
 0.15456147557E+02 0.17027557389E+02 0.18919797665E+02 0.21103639714E+02 0.23522364683E+02
 0.26146801513E+02 0.28887273446E+02 0.31573557196E+02 0.33988625537E+02 0.35909622492E+02
 0.37146812426E+02 0.37573929803E+02 0.37146816729E+02 0.35909628533E+02 0.33988629281E+02
 0.31573554985E+02 0.28887263574E+02 0.26146785003E+02 0.29857474966E+02 0.26113484750E+02
 0.22830156966E+02 0.20007126266E+02 0.17617239284E+02 0.15676655236E+02 0.14162276991E+02
 0.13023514226E+02 0.12200140902E+02 0.11635575096E+02 0.11284620891E+02 0.11116739796E+02
 0.11116740121E+02 0.11284621603E+02 0.11635575627E+02 0.12200140908E+02 0.13023514120E+02
 0.14162278043E+02 0.15676659254E+02 0.17617247589E+02 0.20007139032E+02 0.22830172468E+02
 0.26113499692E+02 0.29857485666E+02 0.33926025872E+02 0.38065044788E+02 0.41947821445E+02
 0.45231382272E+02 0.47610442759E+02 0.48859472962E+02 0.48859476911E+02 0.47610453142E+02
 0.45231395250E+02 0.41947832226E+02 0.38065049351E+02 0.33926022395E+02 0.39565430782E+02
 0.33888283424E+02 0.28818037994E+02 0.24533885879E+02 0.21026097286E+02 0.18157369062E+02
 0.15881132672E+02 0.14150434514E+02 0.12887581845E+02 0.12007975973E+02 0.11436561375E+02
 0.11116740944E+02 0.11013981470E+02 0.11116740121E+02 0.11436560074E+02 0.12007974869E+02
 0.12887581852E+02 0.14150436567E+02 0.15881137437E+02 0.18157376476E+02 0.21026106466E+02
 0.24533894820E+02 0.28818044277E+02 0.33888284605E+02 0.39565425296E+02 0.45505803730E+02
 0.51259922504E+02 0.56347654550E+02 0.60330062001E+02 0.62863603876E+02 0.63732524645E+02
 0.62863612578E+02 0.60330077220E+02 0.56347672615E+02 0.51259939290E+02 0.45505815815E+02
 0.53468852538E+02 0.45467538944E+02 0.37989903408E+02 0.31469728523E+02 0.26120463176E+02
 0.21909778812E+02 0.18605421291E+02 0.16045663821E+02 0.14150119872E+02 0.12809919890E+02
 0.11914623326E+02 0.11371759016E+02 0.11116740944E+02 0.11116739796E+02 0.11371756129E+02
 0.11914620229E+02 0.12809918319E+02 0.14150121110E+02 0.16045667975E+02 0.18605427208E+02
 0.21909784328E+02 0.26120465759E+02 0.31469726207E+02 0.37989895179E+02 0.45467525213E+02
 0.53468834931E+02 0.61413411170E+02 0.68672910777E+02 0.74665664328E+02 0.78924906512E+02
 0.81133556076E+02 0.81133559358E+02 0.78924916020E+02 0.74665678991E+02 0.68672928831E+02
 0.61413430297E+02 0.71700621859E+02 0.61380268961E+02 0.51188053496E+02 0.41839864318E+02
 0.33855038217E+02 0.27466835077E+02 0.22599929928E+02 0.18925580076E+02 0.16151948837E+02
 0.14152194478E+02 0.12784652250E+02 0.11914623326E+02 0.11436561375E+02 0.11284620891E+02
 0.11436558421E+02 0.11914619013E+02 0.12784648942E+02 0.14152194095E+02 0.16151951733E+02
 0.18925584717E+02 0.22599933337E+02 0.27466834078E+02 0.33855030810E+02 0.41839850454E+02
 0.51188035371E+02 0.61380249960E+02 0.71700605388E+02 0.81364432737E+02 0.89643453753E+02
 0.95953526624E+02 0.99890950871E+02 0.10122763797E+03 0.99890951650E+02 0.95953529469E+02
 0.89643460463E+02 0.81364444511E+02 0.93480431612E+02 0.81342493042E+02 0.68615838578E+02
 0.56250094562E+02 0.45097991742E+02 0.35753579916E+02 0.28448855475E+02 0.23041103160E+02
 0.19092276187E+02 0.16188650981E+02 0.14152194478E+02 0.12809919890E+02 0.12007975973E+02
 0.11635575096E+02 0.11635573494E+02 0.12007972101E+02 0.12809915966E+02 0.14152192811E+02
 0.16188652507E+02 0.19092279805E+02 0.23041105935E+02 0.28448854028E+02 0.35753572021E+02
 0.45097977664E+02 0.56250077317E+02 0.68615822785E+02 0.81342483213E+02 0.93480430151E+02
 0.10414908658E+03 0.11265482385E+03 0.11853370455E+03 0.12152723228E+03 0.12152722875E+03
 0.11853369561E+03 0.11265481378E+03 0.10414908044E+03 0.11714097517E+03 0.10414304946E+03
 0.89611975787E+02 0.74594577498E+02 0.60215547056E+02 0.47460162522E+02 0.36976957656E+02
 0.28967268728E+02 0.23193041616E+02 0.19092276187E+02 0.16151948837E+02 0.14150119872E+02
 0.12887581845E+02 0.12200140902E+02 0.11982913729E+02 0.12200138716E+02 0.12887578865E+02
 0.14150118040E+02 0.16151949395E+02 0.19092278776E+02 0.23193044160E+02 0.28967268423E+02
 0.36976952425E+02 0.47460152485E+02 0.60215535008E+02 0.74594568128E+02 0.89611973966E+02
 0.10414305798E+03 0.11714099326E+03 0.12780034120E+03 0.13561926164E+03 0.14035902574E+03
 0.14194303755E+03 0.14035901294E+03 0.13561924026E+03 0.12780031804E+03 0.14045119916E+03
 0.12781179458E+03 0.11265544060E+03 0.95921745169E+02 0.78847502369E+02 0.62739904585E+02
 0.48700883284E+02 0.37399430836E+02 0.28967268728E+02 0.23041103160E+02 0.18925580076E+02
 0.16045663821E+02 0.14150434514E+02 0.13023514226E+02 0.12502639926E+02 0.12502639424E+02
 0.13023513121E+02 0.14150433761E+02 0.16045664230E+02 0.18925581679E+02 0.23041104945E+02
 0.28967269123E+02 0.37399428588E+02 0.48700878549E+02 0.62739899372E+02 0.78847500232E+02
 0.95921749997E+02 0.11265545486E+03 0.12781181795E+03 0.14045122804E+03 0.15003407401E+03
 0.15637886537E+03 0.15951579404E+03 0.15951578650E+03 0.15637884481E+03 0.15003404583E+03
 0.16116113111E+03 0.15006055485E+03 0.13565142526E+03 0.11854613056E+03 0.99862472580E+02
 0.81054179722E+02 0.63605976853E+02 0.48700883284E+02 0.36976957656E+02 0.28448855475E+02
 0.22599929928E+02 0.18605421291E+02 0.15881132672E+02 0.14162276991E+02 0.13228203274E+02
 0.12933560666E+02 0.13228203809E+02 0.14162277979E+02 0.15881133899E+02 0.18605422400E+02
 0.22599930472E+02 0.28448855146E+02 0.36976956539E+02 0.48700882147E+02 0.63605977138E+02
 0.81054183334E+02 0.99862481286E+02 0.11854614525E+03 0.13565144543E+03 0.15006057828E+03
 0.16116115419E+03 0.16882970905E+03 0.17325563426E+03 0.17469367775E+03 0.17325562392E+03
 0.16882969049E+03 0.17758567812E+03 0.16886507496E+03 0.15643431364E+03 0.14040996922E+03
 0.12154826226E+03 0.10120094307E+03 0.81054179722E+02 0.62739904585E+02 0.47460162522E+02
 0.35753579916E+02 0.27466835077E+02 0.21909778812E+02 0.18157369062E+02 0.15676655236E+02
 0.14199462671E+02 0.13516888881E+02 0.13516889834E+02 0.14199465052E+02 0.15676657835E+02
 0.18157370561E+02 0.21909778467E+02 0.27466833180E+02 0.35753577754E+02 0.47460161931E+02
 0.62739907156E+02 0.81054186180E+02 0.10120095291E+03 0.12154827395E+03 0.14040998080E+03
 0.15643432337E+03 0.16886508192E+03 0.17758568229E+03 0.18294523110E+03 0.18544997816E+03
 0.18544997759E+03 0.18294522908E+03 0.18901354716E+03 0.18298138038E+03 0.17332040582E+03
 0.15958976492E+03 0.14200145710E+03 0.12154826226E+03 0.99862472580E+02 0.78847502369E+02
 0.60215547056E+02 0.45097991742E+02 0.33855038217E+02 0.26120463176E+02 0.21026097286E+02
 0.17617239284E+02 0.15456146244E+02 0.14279699238E+02 0.13908460183E+02 0.14279701824E+02
 0.15456149905E+02 0.17617241843E+02 0.21026097128E+02 0.26120460253E+02 0.33855034230E+02
 0.45097989405E+02 0.60215548693E+02 0.78847508589E+02 0.99862481609E+02 0.12154827045E+03
 0.14200146037E+03 0.15958976056E+03 0.17332039395E+03 0.18298136413E+03 0.18901353171E+03
 0.19217617858E+03 0.19314213293E+03 0.19217618795E+03 0.19579127387E+03 0.19220559139E+03
 0.18550864178E+03 0.17476979564E+03 0.15958976492E+03 0.14040996922E+03 0.11854613056E+03
 0.95921745169E+02 0.74594577498E+02 0.56250094562E+02 0.41839864318E+02 0.31469728523E+02
 0.24533885879E+02 0.20007126266E+02 0.17027550161E+02 0.15246729710E+02 0.14422621102E+02
 0.14422622618E+02 0.15246733314E+02 0.17027553570E+02 0.20007127173E+02 0.24533883367E+02
 0.31469723742E+02 0.41839860044E+02 0.56250093702E+02 0.74594581331E+02 0.95921752136E+02
 0.11854613641E+03 0.14040996851E+03 0.15958975341E+03 0.17476977255E+03 0.18550861073E+03
 0.19220555971E+03 0.19579125019E+03 0.19726748276E+03 0.19726749153E+03 0.19905902566E+03
 0.19728567164E+03 0.19318278638E+03 0.18550864178E+03 0.17332040582E+03 0.15643431364E+03
 0.13565142526E+03 0.11265544060E+03 0.89611975787E+02 0.68615838578E+02 0.51188053496E+02
 0.37989903408E+02 0.28818037994E+02 0.22830156966E+02 0.18919783870E+02 0.16432681045E+02
 0.15075378605E+02 0.14646649629E+02 0.15075380960E+02 0.16432684218E+02 0.18919785684E+02
 0.22830155920E+02 0.28818034244E+02 0.37989898848E+02 0.51188050782E+02 0.68615839554E+02
 0.89611980041E+02 0.11265544503E+03 0.13565142493E+03 0.15643430384E+03 0.17332038432E+03
 0.18550861043E+03 0.19318275116E+03 0.19728564106E+03 0.19905900787E+03 0.19952033153E+03
 0.20024367121E+03 0.19952727491E+03 0.19728567164E+03 0.19220559139E+03 0.18298138038E+03
 0.16886507496E+03 0.15006055485E+03 0.12781179458E+03 0.10414304946E+03 0.81342493042E+02
 0.61380268961E+02 0.45467538944E+02 0.33888283424E+02 0.26113484750E+02 0.21103620988E+02
 0.17833575852E+02 0.15873466001E+02 0.14965106109E+02 0.14965106868E+02 0.15873467773E+02
 0.17833577419E+02 0.21103621151E+02 0.26113483074E+02 0.33888280599E+02 0.45467536478E+02
 0.61380268342E+02 0.81342494725E+02 0.10414305228E+03 0.12781179585E+03 0.15006055140E+03
 0.16886506448E+03 0.18298136275E+03 0.19220556925E+03 0.19728564977E+03 0.19952725884E+03
 0.20024366530E+03 0.20035877199E+03 0.20004969300E+03 0.19869736839E+03 0.19518578639E+03
 0.18813549987E+03 0.17646039588E+03 0.15986305280E+03 0.13908740313E+03 0.11582696970E+03
 0.92315011055E+02 0.70747074277E+02 0.52747305401E+02 0.39056848170E+02 0.29515912178E+02
 0.23290242582E+02 0.19246174407E+02 0.16673016833E+02 0.15267485590E+02 0.14823337766E+02
 0.15267485704E+02 0.16673016976E+02 0.19246174460E+02 0.23290242467E+02 0.29515911916E+02
 0.39056847889E+02 0.52747305298E+02 0.70747074527E+02 0.92315011724E+02 0.11582697070E+03
 0.13908740426E+03 0.15986305377E+03 0.17646039650E+03 0.18813550004E+03 0.19518578620E+03
 0.19869736806E+03 0.20004969276E+03 0.20004969276E+03 0.20004968733E+03 0.19921251541E+03
 0.19675376773E+03 0.19140459830E+03 0.18191516034E+03 0.16759269508E+03 0.14868282371E+03
 0.12644781861E+03 0.10290323382E+03 0.80305834508E+02 0.60582135003E+02 0.44900044262E+02
 0.33510884047E+02 0.25868612708E+02 0.20932092169E+02 0.17702248286E+02 0.15766479010E+02
 0.14869358047E+02 0.14869357420E+02 0.15766477537E+02 0.17702246956E+02 0.20932091951E+02
 0.25868613962E+02 0.33510886238E+02 0.44900046225E+02 0.60582135632E+02 0.80305833581E+02
 0.10290323244E+03 0.12644781910E+03 0.14868282869E+03 0.16759270635E+03 0.18191517777E+03
 0.19140461938E+03 0.19675378815E+03 0.19921253025E+03 0.19869736806E+03 0.19921987390E+03
 0.19869735133E+03 0.19675375932E+03 0.19240905910E+03 0.18447521665E+03 0.17206740184E+03
 0.15505042992E+03 0.13425267895E+03 0.11135782062E+03 0.88505973569E+02 0.67750114503E+02
 0.50565864830E+02 0.37577238642E+02 0.28558768480E+02 0.22662403219E+02 0.18795630951E+02
 0.16334486754E+02 0.14990798022E+02 0.14566238890E+02 0.14990795890E+02 0.16334483880E+02
 0.18795629298E+02 0.22662404135E+02 0.28558771804E+02 0.37577242652E+02 0.50565867134E+02
 0.67750113484E+02 0.88505969690E+02 0.11135781681E+03 0.13425267977E+03 0.15505043970E+03
 0.17206742254E+03 0.18447524648E+03 0.19240909241E+03 0.19675378815E+03 0.19518578620E+03
 0.19677312653E+03 0.19677311817E+03 0.19518576368E+03 0.19140458934E+03 0.18447521722E+03
 0.17352389473E+03 0.15820365749E+03 0.13899048869E+03 0.11720854354E+03 0.94762961614E+02
 0.73673531326E+02 0.55580305078E+02 0.41394528696E+02 0.31195545183E+02 0.24367790099E+02
 0.19892136305E+02 0.16938934606E+02 0.15172381303E+02 0.14354271214E+02 0.14354269785E+02
 0.15172377915E+02 0.16938931434E+02 0.19892135534E+02 0.24367792564E+02 0.31195549724E+02
 0.41394532599E+02 0.55580305513E+02 0.73673527057E+02 0.94762954168E+02 0.11720853706E+03
 0.13899048848E+03 0.15820366771E+03 0.17352391619E+03 0.18447524648E+03 0.19140461938E+03
 0.18813550004E+03 0.19143613550E+03 0.19245260295E+03 0.19143612636E+03 0.18813548510E+03
 0.18191516233E+03 0.17206741178E+03 0.15820366472E+03 0.14057505491E+03 0.12019013485E+03
 0.98670430550E+02 0.77886899820E+02 0.59508433404E+02 0.44624903418E+02 0.33566738987E+02
 0.25954253571E+02 0.20921153628E+02 0.17538466027E+02 0.15391183850E+02 0.14220777528E+02
 0.13851152806E+02 0.14220774996E+02 0.15391180307E+02 0.17538463657E+02 0.20921154019E+02
 0.25954256707E+02 0.33566743056E+02 0.44624905578E+02 0.59508431233E+02 0.77886892676E+02
 0.98670420258E+02 0.12019012519E+03 0.14057505014E+03 0.15820366771E+03 0.17206742254E+03
 0.18191517777E+03 0.17646039650E+03 0.18195442958E+03 0.18453871210E+03 0.18453871242E+03
 0.18195443095E+03 0.17646039995E+03 0.16759271291E+03 0.15505044964E+03 0.13899050092E+03
 0.12019013820E+03 0.99997515501E+02 0.80072876035E+02 0.62008840539E+02 0.46966709593E+02
 0.35453508387E+02 0.27299402441E+02 0.21813237443E+02 0.18087916528E+02 0.15620095520E+02
 0.14147922650E+02 0.13466716889E+02 0.13466715885E+02 0.14147920172E+02 0.15620092918E+02
 0.18087915247E+02 0.21813238249E+02 0.27299404908E+02 0.35453510975E+02 0.46966710192E+02
 0.62008837391E+02 0.80072868456E+02 0.99997504248E+02 0.12019012519E+03 0.13899048848E+03
 0.15505043970E+03 0.16759270635E+03 0.15986305377E+03 0.16763207950E+03 0.17213888524E+03
 0.17360767310E+03 0.17213889449E+03 0.16763209626E+03 0.15986307496E+03 0.14868285072E+03
 0.13425269938E+03 0.11720855204E+03 0.98670429757E+02 0.80072872881E+02 0.62866641386E+02
 0.48196610817E+02 0.36669018871E+02 0.28279915231E+02 0.22509004695E+02 0.18543896682E+02
 0.15831677375E+02 0.14116470387E+02 0.13182478770E+02 0.12887505834E+02 0.13182478007E+02
 0.14116469123E+02 0.15831676077E+02 0.18543895894E+02 0.22509004854E+02 0.28279916424E+02
 0.36669020662E+02 0.48196612135E+02 0.62866640688E+02 0.80072868456E+02 0.98670420258E+02
 0.11720853706E+03 0.13425267977E+03 0.14868282869E+03 0.13908740426E+03 0.14871403168E+03
 0.15511419070E+03 0.15828788318E+03 0.15828789004E+03 0.15511420943E+03 0.14871405743E+03
 0.13908743077E+03 0.12644784072E+03 0.11135783016E+03 0.94762958810E+02 0.77886890687E+02
 0.62008832229E+02 0.48196607063E+02 0.37088719121E+02 0.28797328524E+02 0.22953338857E+02
 0.18869811913E+02 0.16001632137E+02 0.14108907382E+02 0.12980506758E+02 0.12457941592E+02
 0.12457941917E+02 0.12980507439E+02 0.14108907736E+02 0.16001631645E+02 0.18869810699E+02
 0.22953337866E+02 0.28797329064E+02 0.37088722113E+02 0.48196612135E+02 0.62008837391E+02
 0.77886892676E+02 0.94762954168E+02 0.11135781681E+03 0.12644781910E+03 0.11582697070E+03
 0.12646447626E+03 0.13429435368E+03 0.13905380051E+03 0.14064684022E+03 0.13905381226E+03
 0.13429437327E+03 0.12646449736E+03 0.11582698692E+03 0.10290323958E+03 0.88505967047E+02
 0.73673517261E+02 0.59508418880E+02 0.46966699731E+02 0.36669014814E+02 0.28797328039E+02
 0.23106290138E+02 0.19039531057E+02 0.16111321036E+02 0.14111466833E+02 0.12846191918E+02
 0.12155465587E+02 0.11936876887E+02 0.12155467421E+02 0.12846194366E+02 0.14111468219E+02
 0.16111320349E+02 0.19039528749E+02 0.23106288195E+02 0.28797329064E+02 0.36669020662E+02
 0.46966710192E+02 0.59508431233E+02 0.73673527057E+02 0.88505969690E+02 0.10290323244E+03
 0.92315011724E+02 0.10290264720E+03 0.11136870570E+03 0.11723484971E+03 0.12022698164E+03
 0.12022698497E+03 0.11723485812E+03 0.11136871502E+03 0.10290265254E+03 0.92315009529E+02