   2   2   1   0
  0.1141040E+02  0.2477675E-09  0.2477675E-09  0.4292514E-09  0.5000000E-15
  1.000000000000000E-004
  CAR 
 Pt-hcc                                  
     45.80620802    -40.31082987  301     18.40597188      1.00000000
    -40.311  0.0000E+00  0.0000E+00
    -40.024  0.0000E+00  0.0000E+00
    -39.737  0.0000E+00  0.0000E+00
    -39.450  0.0000E+00  0.0000E+00
    -39.163  0.0000E+00  0.0000E+00
    -38.876  0.0000E+00  0.0000E+00
    -38.588  0.0000E+00  0.0000E+00
    -38.301  0.0000E+00  0.0000E+00
    -38.014  0.0000E+00  0.0000E+00
    -37.727  0.0000E+00  0.0000E+00
    -37.440  0.0000E+00  0.0000E+00
    -37.153  0.0000E+00  0.0000E+00
    -36.866  0.0000E+00  0.0000E+00
    -36.579  0.1378E-09  0.3954E-10
    -36.292  0.1377E-01  0.3954E-02
    -36.005  0.7284E-01  0.2486E-01
    -35.718  0.5239E-01  0.3990E-01
    -35.431  0.9581E-01  0.6740E-01
    -35.144  0.1535E+00  0.1115E+00
    -34.857  0.2976E-01  0.1200E+00
    -34.570  0.0000E+00  0.1200E+00
    -34.283  0.0000E+00  0.1200E+00
    -33.996  0.0000E+00  0.1200E+00
    -33.709  0.0000E+00  0.1200E+00
    -33.421  0.0000E+00  0.1200E+00
    -33.134  0.0000E+00  0.1200E+00
    -32.847  0.0000E+00  0.1200E+00
    -32.560  0.0000E+00  0.1200E+00
    -32.273  0.0000E+00  0.1200E+00
    -31.986  0.0000E+00  0.1200E+00
    -31.699  0.0000E+00  0.1200E+00
    -31.412  0.0000E+00  0.1200E+00
    -31.125  0.0000E+00  0.1200E+00
    -30.838  0.0000E+00  0.1200E+00
    -30.551  0.0000E+00  0.1200E+00
    -30.264  0.0000E+00  0.1200E+00
    -29.977  0.0000E+00  0.1200E+00
    -29.690  0.0000E+00  0.1200E+00
    -29.403  0.0000E+00  0.1200E+00
    -29.116  0.0000E+00  0.1200E+00
    -28.829  0.0000E+00  0.1200E+00
    -28.542  0.0000E+00  0.1200E+00
    -28.254  0.0000E+00  0.1200E+00
    -27.967  0.0000E+00  0.1200E+00
    -27.680  0.0000E+00  0.1200E+00
    -27.393  0.0000E+00  0.1200E+00
    -27.106  0.0000E+00  0.1200E+00
    -26.819  0.0000E+00  0.1200E+00
    -26.532  0.0000E+00  0.1200E+00
    -26.245  0.0000E+00  0.1200E+00
    -25.958  0.0000E+00  0.1200E+00
    -25.671  0.0000E+00  0.1200E+00
    -25.384  0.0000E+00  0.1200E+00
    -25.097  0.0000E+00  0.1200E+00
    -24.810  0.0000E+00  0.1200E+00
    -24.523  0.0000E+00  0.1200E+00
    -24.236  0.0000E+00  0.1200E+00
    -23.949  0.0000E+00  0.1200E+00
    -23.662  0.0000E+00  0.1200E+00
    -23.374  0.0000E+00  0.1200E+00
    -23.087  0.0000E+00  0.1200E+00
    -22.800  0.0000E+00  0.1200E+00
    -22.513  0.0000E+00  0.1200E+00
    -22.226  0.0000E+00  0.1200E+00
    -21.939  0.0000E+00  0.1200E+00
    -21.652  0.0000E+00  0.1200E+00
    -21.365  0.0000E+00  0.1200E+00
    -21.078  0.0000E+00  0.1200E+00
    -20.791  0.0000E+00  0.1200E+00
    -20.504  0.0000E+00  0.1200E+00
    -20.217  0.0000E+00  0.1200E+00
    -19.930  0.0000E+00  0.1200E+00
    -19.643  0.0000E+00  0.1200E+00
    -19.356  0.0000E+00  0.1200E+00
    -19.069  0.0000E+00  0.1200E+00
    -18.782  0.0000E+00  0.1200E+00
    -18.495  0.0000E+00  0.1200E+00
    -18.207  0.0000E+00  0.1200E+00
    -17.920  0.0000E+00  0.1200E+00
    -17.633  0.0000E+00  0.1200E+00
    -17.346  0.0000E+00  0.1200E+00
    -17.059  0.0000E+00  0.1200E+00
    -16.772  0.0000E+00  0.1200E+00
    -16.485  0.0000E+00  0.1200E+00
    -16.198  0.0000E+00  0.1200E+00
    -15.911  0.0000E+00  0.1200E+00
    -15.624  0.0000E+00  0.1200E+00
    -15.337  0.0000E+00  0.1200E+00
    -15.050  0.0000E+00  0.1200E+00
    -14.763  0.0000E+00  0.1200E+00
    -14.476  0.0000E+00  0.1200E+00
    -14.189  0.0000E+00  0.1200E+00
    -13.902  0.0000E+00  0.1200E+00
    -13.615  0.0000E+00  0.1200E+00
    -13.327  0.0000E+00  0.1200E+00
    -13.040  0.0000E+00  0.1200E+00
    -12.753  0.0000E+00  0.1200E+00
    -12.466  0.0000E+00  0.1200E+00
    -12.179  0.0000E+00  0.1200E+00
    -11.892  0.0000E+00  0.1200E+00
    -11.605  0.0000E+00  0.1200E+00
    -11.318  0.0000E+00  0.1200E+00
    -11.031  0.0000E+00  0.1200E+00
    -10.744  0.0000E+00  0.1200E+00
    -10.457  0.0000E+00  0.1200E+00
    -10.170  0.0000E+00  0.1200E+00
     -9.883  0.0000E+00  0.1200E+00
     -9.596  0.0000E+00  0.1200E+00
     -9.309  0.0000E+00  0.1200E+00
     -9.022  0.0000E+00  0.1200E+00
     -8.735  0.0000E+00  0.1200E+00
     -8.448  0.0000E+00  0.1200E+00
     -8.160  0.0000E+00  0.1200E+00
     -7.873  0.0000E+00  0.1200E+00
     -7.586  0.0000E+00  0.1200E+00
     -7.299  0.0000E+00  0.1200E+00
     -7.012  0.0000E+00  0.1200E+00
     -6.725  0.0000E+00  0.1200E+00
     -6.438  0.0000E+00  0.1200E+00
     -6.151  0.0000E+00  0.1200E+00
     -5.864  0.0000E+00  0.1200E+00
     -5.577  0.0000E+00  0.1200E+00
     -5.290  0.0000E+00  0.1200E+00
     -5.003  0.0000E+00  0.1200E+00
     -4.716  0.0000E+00  0.1200E+00
     -4.429  0.0000E+00  0.1200E+00
     -4.142  0.0000E+00  0.1200E+00
     -3.855  0.0000E+00  0.1200E+00
     -3.568  0.0000E+00  0.1200E+00
     -3.281  0.0000E+00  0.1200E+00
     -2.993  0.0000E+00  0.1200E+00
     -2.706  0.0000E+00  0.1200E+00
     -2.419  0.0000E+00  0.1200E+00
     -2.132  0.0000E+00  0.1200E+00
     -1.845  0.0000E+00  0.1200E+00
     -1.558  0.0000E+00  0.1200E+00
     -1.271  0.0000E+00  0.1200E+00
     -0.984  0.0000E+00  0.1200E+00
     -0.697  0.0000E+00  0.1200E+00
     -0.410  0.0000E+00  0.1200E+00
     -0.123  0.0000E+00  0.1200E+00
      0.164  0.0000E+00  0.1200E+00
      0.451  0.0000E+00  0.1200E+00
      0.738  0.0000E+00  0.1200E+00
      1.025  0.0000E+00  0.1200E+00
      1.312  0.0000E+00  0.1200E+00
      1.599  0.0000E+00  0.1200E+00
      1.887  0.0000E+00  0.1200E+00
      2.174  0.0000E+00  0.1200E+00
      2.461  0.0000E+00  0.1200E+00
      2.748  0.0000E+00  0.1200E+00
      3.035  0.0000E+00  0.1200E+00
      3.322  0.0000E+00  0.1200E+00
      3.609  0.0000E+00  0.1200E+00
      3.896  0.0000E+00  0.1200E+00
      4.183  0.0000E+00  0.1200E+00
      4.470  0.1615E-17  0.1200E+00
      4.757  0.6168E-04  0.1200E+00
      5.044  0.1995E-03  0.1201E+00
      5.331  0.5213E-03  0.1202E+00
      5.618  0.1221E-02  0.1206E+00
      5.905  0.8974E-04  0.1206E+00
      6.192  0.1342E-02  0.1210E+00
      6.479  0.1361E-02  0.1214E+00
      6.766  0.2581E-02  0.1221E+00
      7.054  0.1256E-02  0.1225E+00
      7.341  0.1042E-02  0.1228E+00
      7.628  0.2889E-02  0.1236E+00
      7.915  0.8989E-02  0.1262E+00
      8.202  0.1683E-01  0.1310E+00
      8.489  0.1836E-01  0.1363E+00
      8.776  0.1318E-01  0.1401E+00
      9.063  0.2591E-01  0.1475E+00
      9.350  0.1550E-01  0.1520E+00
      9.637  0.1541E-01  0.1564E+00
      9.924  0.1925E-01  0.1619E+00
     10.211  0.2356E-01  0.1687E+00
     10.498  0.2139E-01  0.1748E+00
     10.785  0.1642E-01  0.1795E+00
     11.072  0.1838E-01  0.1848E+00
     11.359  0.2168E-01  0.1910E+00
     11.646  0.1485E-01  0.1953E+00
     11.934  0.1705E-01  0.2002E+00
     12.221  0.2301E-01  0.2068E+00
     12.508  0.1613E-01  0.2114E+00
     12.795  0.2264E-01  0.2179E+00
     13.082  0.2578E-01  0.2253E+00
     13.369  0.2099E-01  0.2313E+00
     13.656  0.1370E-01  0.2353E+00
     13.943  0.2934E-01  0.2437E+00
     14.230  0.2692E-01  0.2514E+00
     14.517  0.1998E-01  0.2572E+00
     14.804  0.1444E-01  0.2613E+00
     15.091  0.1084E-01  0.2644E+00
     15.378  0.1552E-01  0.2689E+00
     15.665  0.1325E-01  0.2727E+00
     15.952  0.1447E-01  0.2768E+00
     16.239  0.1680E-01  0.2817E+00
     16.526  0.1491E-01  0.2859E+00
     16.813  0.1570E-01  0.2904E+00
     17.101  0.1203E-01  0.2939E+00
     17.388  0.1297E-01  0.2976E+00
     17.675  0.1558E-01  0.3021E+00
     17.962  0.2273E-01  0.3086E+00
     18.249  0.2950E-01  0.3171E+00
     18.536  0.2068E-01  0.3230E+00
     18.823  0.1398E-01  0.3270E+00
     19.110  0.1818E-01  0.3323E+00
     19.397  0.9220E-02  0.3349E+00
     19.684  0.4492E-02  0.3362E+00
     19.971  0.1790E-02  0.3367E+00
     20.258  0.1520E-02  0.3371E+00
     20.545  0.1261E-02  0.3375E+00
     20.832  0.3419E-02  0.3385E+00
     21.119  0.5076E-02  0.3399E+00
     21.406  0.5560E-02  0.3415E+00
     21.693  0.7723E-02  0.3438E+00
     21.980  0.4353E-02  0.3450E+00
     22.268  0.1302E-02  0.3454E+00
     22.555  0.5676E-02  0.3470E+00
     22.842  0.3564E-02  0.3480E+00
     23.129  0.4617E-03  0.3482E+00
     23.416  0.5717E-02  0.3498E+00
     23.703  0.6361E-02  0.3516E+00
     23.990  0.1653E-02  0.3521E+00
     24.277  0.1114E-02  0.3524E+00
     24.564  0.7790E-02  0.3547E+00
     24.851  0.5532E-02  0.3562E+00
     25.138  0.2873E-02  0.3571E+00
     25.425  0.4631E-02  0.3584E+00
     25.712  0.3972E-02  0.3595E+00
     25.999  0.1256E-02  0.3599E+00
     26.286  0.9559E-03  0.3602E+00
     26.573  0.3543E-02  0.3612E+00
     26.860  0.3947E-02  0.3623E+00
     27.148  0.3442E-02  0.3633E+00
     27.435  0.6860E-02  0.3653E+00
     27.722  0.9963E-02  0.3681E+00
     28.009  0.1025E-01  0.3711E+00
     28.296  0.5036E-02  0.3725E+00
     28.583  0.6820E-02  0.3745E+00
     28.870  0.7457E-02  0.3766E+00
     29.157  0.8878E-02  0.3792E+00
     29.444  0.3629E-02  0.3802E+00
     29.731  0.1113E-01  0.3834E+00
     30.018  0.2799E-02  0.3842E+00
     30.305  0.4380E-02  0.3855E+00
     30.592  0.1017E-01  0.3884E+00
     30.879  0.5408E-02  0.3899E+00
     31.166  0.7105E-02  0.3920E+00
     31.453  0.3252E-02  0.3929E+00
     31.740  0.5305E-02  0.3944E+00
     32.027  0.8697E-02  0.3969E+00
     32.315  0.9766E-02  0.3997E+00
     32.602  0.7703E-02  0.4020E+00
     32.889  0.1239E-01  0.4055E+00
     33.176  0.4126E-02  0.4067E+00
     33.463  0.1707E-01  0.4116E+00
     33.750  0.1041E-01  0.4146E+00
     34.037  0.7007E-02  0.4166E+00
     34.324  0.1990E-01  0.4223E+00
     34.611  0.1391E-01  0.4263E+00
     34.898  0.1355E-01  0.4302E+00
     35.185  0.1694E-01  0.4351E+00
     35.472  0.8274E-02  0.4374E+00
     35.759  0.1121E-01  0.4407E+00
     36.046  0.1246E-01  0.4442E+00
     36.333  0.1083E-01  0.4473E+00
     36.620  0.1052E-01  0.4504E+00
     36.907  0.1355E-01  0.4542E+00
     37.195  0.7529E-02  0.4564E+00
     37.482  0.1660E-01  0.4612E+00
     37.769  0.1321E-01  0.4650E+00
     38.056  0.1124E-01  0.4682E+00
     38.343  0.8845E-02  0.4707E+00
     38.630  0.9356E-02  0.4734E+00
     38.917  0.3561E-02  0.4744E+00
     39.204  0.6034E-02  0.4762E+00
     39.491  0.3749E-02  0.4772E+00
     39.778  0.3768E-02  0.4783E+00
     40.065  0.1476E-02  0.4788E+00
     40.352  0.2298E-02  0.4794E+00
     40.639  0.1070E-02  0.4797E+00
     40.926  0.7617E-03  0.4799E+00
     41.213  0.4748E-04  0.4800E+00
     41.500  0.0000E+00  0.4800E+00
     41.787  0.2746E-06  0.4800E+00
     42.074  0.1739E-03  0.4800E+00
     42.362  0.0000E+00  0.4800E+00
     42.649  0.0000E+00  0.4800E+00
     42.936  0.0000E+00  0.4800E+00
     43.223  0.0000E+00  0.4800E+00
     43.510  0.0000E+00  0.4800E+00
     43.797  0.0000E+00  0.4800E+00
     44.084  0.0000E+00  0.4800E+00
     44.371  0.0000E+00  0.4800E+00
     44.658  0.0000E+00  0.4800E+00
     44.945  0.0000E+00  0.4800E+00
     45.232  0.0000E+00  0.4800E+00
     45.519  0.0000E+00  0.4800E+00
     45.806  0.0000E+00  0.4800E+00
     45.80620802    -40.31082987  301     18.40597188      1.00000000
    -40.311  0.0000E+00  0.0000E+00  0.0000E+00  0.0000E+00  0.0000E+00  0.0000E+00  0.0000E+00  0.0000E+00  0.0000E+00
    -40.024  0.0000E+00  0.0000E+00  0.0000E+00  0.0000E+00  0.0000E+00  0.0000E+00  0.0000E+00  0.0000E+00  0.0000E+00
    -39.737  0.0000E+00  0.0000E+00  0.0000E+00  0.0000E+00  0.0000E+00  0.0000E+00  0.0000E+00  0.0000E+00  0.0000E+00
    -39.450  0.0000E+00  0.0000E+00  0.0000E+00  0.0000E+00  0.0000E+00  0.0000E+00  0.0000E+00  0.0000E+00  0.0000E+00
    -39.163  0.0000E+00  0.0000E+00  0.0000E+00  0.0000E+00  0.0000E+00  0.0000E+00  0.0000E+00  0.0000E+00  0.0000E+00
    -38.876  0.0000E+00  0.0000E+00  0.0000E+00  0.0000E+00  0.0000E+00  0.0000E+00  0.0000E+00  0.0000E+00  0.0000E+00
    -38.588  0.0000E+00  0.0000E+00  0.0000E+00  0.0000E+00  0.0000E+00  0.0000E+00  0.0000E+00  0.0000E+00  0.0000E+00
    -38.301  0.0000E+00  0.0000E+00  0.0000E+00  0.0000E+00  0.0000E+00  0.0000E+00  0.0000E+00  0.0000E+00  0.0000E+00
    -38.014  0.0000E+00  0.0000E+00  0.0000E+00  0.0000E+00  0.0000E+00  0.0000E+00  0.0000E+00  0.0000E+00  0.0000E+00
    -37.727  0.0000E+00  0.0000E+00  0.0000E+00  0.0000E+00  0.0000E+00  0.0000E+00  0.0000E+00  0.0000E+00  0.0000E+00
    -37.440  0.0000E+00  0.0000E+00  0.0000E+00  0.0000E+00  0.0000E+00  0.0000E+00  0.0000E+00  0.0000E+00  0.0000E+00
    -37.153  0.0000E+00  0.0000E+00  0.0000E+00  0.0000E+00  0.0000E+00  0.0000E+00  0.0000E+00  0.0000E+00  0.0000E+00
    -36.866  0.0000E+00  0.0000E+00  0.0000E+00  0.0000E+00  0.0000E+00  0.0000E+00  0.0000E+00  0.0000E+00  0.0000E+00
    -36.579  0.1685E-12  0.3168E-08  0.3594E-09  0.3168E-08  0.5821E-14  0.2046E-13  0.2439E-12  0.2046E-13  0.5821E-14
    -36.292  0.6420E-04  0.3185E+00  0.3366E-01  0.3185E+00  0.3419E-04  0.5372E-05  0.5156E-04  0.5372E-05  0.3419E-04
    -36.005  0.9329E-03  0.1629E+01  0.3017E+00  0.1629E+01  0.3921E-03  0.4833E-04  0.4713E-03  0.4833E-04  0.3921E-03
    -35.718  0.1126E-02  0.8634E+00  0.8450E+00  0.8634E+00  0.3044E-03  0.1124E-03  0.3223E-03  0.1124E-03  0.3044E-03
    -35.431  0.6343E-03  0.1544E+01  0.1652E+01  0.1544E+01  0.6912E-03  0.2975E-03  0.4685E-03  0.2975E-03  0.6912E-03
    -35.144  0.3054E-03  0.2219E+01  0.3204E+01  0.2219E+01  0.4591E-03  0.2673E-03  0.4332E-03  0.2673E-03  0.4591E-03
    -34.857  0.1590E-04  0.3155E+00  0.8555E+00  0.3155E+00  0.2508E-04  0.3328E-04  0.5267E-04  0.3328E-04  0.2508E-04
    -34.570  0.0000E+00  0.0000E+00  0.0000E+00  0.0000E+00  0.0000E+00  0.0000E+00  0.0000E+00  0.0000E+00  0.0000E+00
    -34.283  0.0000E+00  0.0000E+00  0.0000E+00  0.0000E+00  0.0000E+00  0.0000E+00  0.0000E+00  0.0000E+00  0.0000E+00
    -33.996  0.0000E+00  0.0000E+00  0.0000E+00  0.0000E+00  0.0000E+00  0.0000E+00  0.0000E+00  0.0000E+00  0.0000E+00
    -33.709  0.0000E+00  0.0000E+00  0.0000E+00  0.0000E+00  0.0000E+00  0.0000E+00  0.0000E+00  0.0000E+00  0.0000E+00
    -33.421  0.0000E+00  0.0000E+00  0.0000E+00  0.0000E+00  0.0000E+00  0.0000E+00  0.0000E+00  0.0000E+00  0.0000E+00
    -33.134  0.0000E+00  0.0000E+00  0.0000E+00  0.0000E+00  0.0000E+00  0.0000E+00  0.0000E+00  0.0000E+00  0.0000E+00
    -32.847  0.0000E+00  0.0000E+00  0.0000E+00  0.0000E+00  0.0000E+00  0.0000E+00  0.0000E+00  0.0000E+00  0.0000E+00
    -32.560  0.0000E+00  0.0000E+00  0.0000E+00  0.0000E+00  0.0000E+00  0.0000E+00  0.0000E+00  0.0000E+00  0.0000E+00
    -32.273  0.0000E+00  0.0000E+00  0.0000E+00  0.0000E+00  0.0000E+00  0.0000E+00  0.0000E+00  0.0000E+00  0.0000E+00
    -31.986  0.0000E+00  0.0000E+00  0.0000E+00  0.0000E+00  0.0000E+00  0.0000E+00  0.0000E+00  0.0000E+00  0.0000E+00
    -31.699  0.0000E+00  0.0000E+00  0.0000E+00  0.0000E+00  0.0000E+00  0.0000E+00  0.0000E+00  0.0000E+00  0.0000E+00
    -31.412  0.0000E+00  0.0000E+00  0.0000E+00  0.0000E+00  0.0000E+00  0.0000E+00  0.0000E+00  0.0000E+00  0.0000E+00
    -31.125  0.0000E+00  0.0000E+00  0.0000E+00  0.0000E+00  0.0000E+00  0.0000E+00  0.0000E+00  0.0000E+00  0.0000E+00
    -30.838  0.0000E+00  0.0000E+00  0.0000E+00  0.0000E+00  0.0000E+00  0.0000E+00  0.0000E+00  0.0000E+00  0.0000E+00
    -30.551  0.0000E+00  0.0000E+00  0.0000E+00  0.0000E+00  0.0000E+00  0.0000E+00  0.0000E+00  0.0000E+00  0.0000E+00
    -30.264  0.0000E+00  0.0000E+00  0.0000E+00  0.0000E+00  0.0000E+00  0.0000E+00  0.0000E+00  0.0000E+00  0.0000E+00
    -29.977  0.0000E+00  0.0000E+00  0.0000E+00  0.0000E+00  0.0000E+00  0.0000E+00  0.0000E+00  0.0000E+00  0.0000E+00
    -29.690  0.0000E+00  0.0000E+00  0.0000E+00  0.0000E+00  0.0000E+00  0.0000E+00  0.0000E+00  0.0000E+00  0.0000E+00
    -29.403  0.0000E+00  0.0000E+00  0.0000E+00  0.0000E+00  0.0000E+00  0.0000E+00  0.0000E+00  0.0000E+00  0.0000E+00
    -29.116  0.0000E+00  0.0000E+00  0.0000E+00  0.0000E+00  0.0000E+00  0.0000E+00  0.0000E+00  0.0000E+00  0.0000E+00
    -28.829  0.0000E+00  0.0000E+00  0.0000E+00  0.0000E+00  0.0000E+00  0.0000E+00  0.0000E+00  0.0000E+00  0.0000E+00
    -28.542  0.0000E+00  0.0000E+00  0.0000E+00  0.0000E+00  0.0000E+00  0.0000E+00  0.0000E+00  0.0000E+00  0.0000E+00
    -28.254  0.0000E+00  0.0000E+00  0.0000E+00  0.0000E+00  0.0000E+00  0.0000E+00  0.0000E+00  0.0000E+00  0.0000E+00
    -27.967  0.0000E+00  0.0000E+00  0.0000E+00  0.0000E+00  0.0000E+00  0.0000E+00  0.0000E+00  0.0000E+00  0.0000E+00
    -27.680  0.0000E+00  0.0000E+00  0.0000E+00  0.0000E+00  0.0000E+00  0.0000E+00  0.0000E+00  0.0000E+00  0.0000E+00
    -27.393  0.0000E+00  0.0000E+00  0.0000E+00  0.0000E+00  0.0000E+00  0.0000E+00  0.0000E+00  0.0000E+00  0.0000E+00
    -27.106  0.0000E+00  0.0000E+00  0.0000E+00  0.0000E+00  0.0000E+00  0.0000E+00  0.0000E+00  0.0000E+00  0.0000E+00
    -26.819  0.0000E+00  0.0000E+00  0.0000E+00  0.0000E+00  0.0000E+00  0.0000E+00  0.0000E+00  0.0000E+00  0.0000E+00
    -26.532  0.0000E+00  0.0000E+00  0.0000E+00  0.0000E+00  0.0000E+00  0.0000E+00  0.0000E+00  0.0000E+00  0.0000E+00
    -26.245  0.0000E+00  0.0000E+00  0.0000E+00  0.0000E+00  0.0000E+00  0.0000E+00  0.0000E+00  0.0000E+00  0.0000E+00
    -25.958  0.0000E+00  0.0000E+00  0.0000E+00  0.0000E+00  0.0000E+00  0.0000E+00  0.0000E+00  0.0000E+00  0.0000E+00
    -25.671  0.0000E+00  0.0000E+00  0.0000E+00  0.0000E+00  0.0000E+00  0.0000E+00  0.0000E+00  0.0000E+00  0.0000E+00
    -25.384  0.0000E+00  0.0000E+00  0.0000E+00  0.0000E+00  0.0000E+00  0.0000E+00  0.0000E+00  0.0000E+00  0.0000E+00
    -25.097  0.0000E+00  0.0000E+00  0.0000E+00  0.0000E+00  0.0000E+00  0.0000E+00  0.0000E+00  0.0000E+00  0.0000E+00
    -24.810  0.0000E+00  0.0000E+00  0.0000E+00  0.0000E+00  0.0000E+00  0.0000E+00  0.0000E+00  0.0000E+00  0.0000E+00
    -24.523  0.0000E+00  0.0000E+00  0.0000E+00  0.0000E+00  0.0000E+00  0.0000E+00  0.0000E+00  0.0000E+00  0.0000E+00
    -24.236  0.0000E+00  0.0000E+00  0.0000E+00  0.0000E+00  0.0000E+00  0.0000E+00  0.0000E+00  0.0000E+00  0.0000E+00
    -23.949  0.0000E+00  0.0000E+00  0.0000E+00  0.0000E+00  0.0000E+00  0.0000E+00  0.0000E+00  0.0000E+00  0.0000E+00
    -23.662  0.0000E+00  0.0000E+00  0.0000E+00  0.0000E+00  0.0000E+00  0.0000E+00  0.0000E+00  0.0000E+00  0.0000E+00
    -23.374  0.0000E+00  0.0000E+00  0.0000E+00  0.0000E+00  0.0000E+00  0.0000E+00  0.0000E+00  0.0000E+00  0.0000E+00
    -23.087  0.0000E+00  0.0000E+00  0.0000E+00  0.0000E+00  0.0000E+00  0.0000E+00  0.0000E+00  0.0000E+00  0.0000E+00
    -22.800  0.0000E+00  0.0000E+00  0.0000E+00  0.0000E+00  0.0000E+00  0.0000E+00  0.0000E+00  0.0000E+00  0.0000E+00
    -22.513  0.0000E+00  0.0000E+00  0.0000E+00  0.0000E+00  0.0000E+00  0.0000E+00  0.0000E+00  0.0000E+00  0.0000E+00
    -22.226  0.0000E+00  0.0000E+00  0.0000E+00  0.0000E+00  0.0000E+00  0.0000E+00  0.0000E+00  0.0000E+00  0.0000E+00
    -21.939  0.0000E+00  0.0000E+00  0.0000E+00  0.0000E+00  0.0000E+00  0.0000E+00  0.0000E+00  0.0000E+00  0.0000E+00
    -21.652  0.0000E+00  0.0000E+00  0.0000E+00  0.0000E+00  0.0000E+00  0.0000E+00  0.0000E+00  0.0000E+00  0.0000E+00
    -21.365  0.0000E+00  0.0000E+00  0.0000E+00  0.0000E+00  0.0000E+00  0.0000E+00  0.0000E+00  0.0000E+00  0.0000E+00
    -21.078  0.0000E+00  0.0000E+00  0.0000E+00  0.0000E+00  0.0000E+00  0.0000E+00  0.0000E+00  0.0000E+00  0.0000E+00
    -20.791  0.0000E+00  0.0000E+00  0.0000E+00  0.0000E+00  0.0000E+00  0.0000E+00  0.0000E+00  0.0000E+00  0.0000E+00
    -20.504  0.0000E+00  0.0000E+00  0.0000E+00  0.0000E+00  0.0000E+00  0.0000E+00  0.0000E+00  0.0000E+00  0.0000E+00
    -20.217  0.0000E+00  0.0000E+00  0.0000E+00  0.0000E+00  0.0000E+00  0.0000E+00  0.0000E+00  0.0000E+00  0.0000E+00
    -19.930  0.0000E+00  0.0000E+00  0.0000E+00  0.0000E+00  0.0000E+00  0.0000E+00  0.0000E+00  0.0000E+00  0.0000E+00
    -19.643  0.0000E+00  0.0000E+00  0.0000E+00  0.0000E+00  0.0000E+00  0.0000E+00  0.0000E+00  0.0000E+00  0.0000E+00
    -19.356  0.0000E+00  0.0000E+00  0.0000E+00  0.0000E+00  0.0000E+00  0.0000E+00  0.0000E+00  0.0000E+00  0.0000E+00
    -19.069  0.0000E+00  0.0000E+00  0.0000E+00  0.0000E+00  0.0000E+00  0.0000E+00  0.0000E+00  0.0000E+00  0.0000E+00
    -18.782  0.0000E+00  0.0000E+00  0.0000E+00  0.0000E+00  0.0000E+00  0.0000E+00  0.0000E+00  0.0000E+00  0.0000E+00
    -18.495  0.0000E+00  0.0000E+00  0.0000E+00  0.0000E+00  0.0000E+00  0.0000E+00  0.0000E+00  0.0000E+00  0.0000E+00
    -18.207  0.0000E+00  0.0000E+00  0.0000E+00  0.0000E+00  0.0000E+00  0.0000E+00  0.0000E+00  0.0000E+00  0.0000E+00
    -17.920  0.0000E+00  0.0000E+00  0.0000E+00  0.0000E+00  0.0000E+00  0.0000E+00  0.0000E+00  0.0000E+00  0.0000E+00
    -17.633  0.0000E+00  0.0000E+00  0.0000E+00  0.0000E+00  0.0000E+00  0.0000E+00  0.0000E+00  0.0000E+00  0.0000E+00
    -17.346  0.0000E+00  0.0000E+00  0.0000E+00  0.0000E+00  0.0000E+00  0.0000E+00  0.0000E+00  0.0000E+00  0.0000E+00
    -17.059  0.0000E+00  0.0000E+00  0.0000E+00  0.0000E+00  0.0000E+00  0.0000E+00  0.0000E+00  0.0000E+00  0.0000E+00
    -16.772  0.0000E+00  0.0000E+00  0.0000E+00  0.0000E+00  0.0000E+00  0.0000E+00  0.0000E+00  0.0000E+00  0.0000E+00
    -16.485  0.0000E+00  0.0000E+00  0.0000E+00  0.0000E+00  0.0000E+00  0.0000E+00  0.0000E+00  0.0000E+00  0.0000E+00
    -16.198  0.0000E+00  0.0000E+00  0.0000E+00  0.0000E+00  0.0000E+00  0.0000E+00  0.0000E+00  0.0000E+00  0.0000E+00
    -15.911  0.0000E+00  0.0000E+00  0.0000E+00  0.0000E+00  0.0000E+00  0.0000E+00  0.0000E+00  0.0000E+00  0.0000E+00
    -15.624  0.0000E+00  0.0000E+00  0.0000E+00  0.0000E+00  0.0000E+00  0.0000E+00  0.0000E+00  0.0000E+00  0.0000E+00
    -15.337  0.0000E+00  0.0000E+00  0.0000E+00  0.0000E+00  0.0000E+00  0.0000E+00  0.0000E+00  0.0000E+00  0.0000E+00
    -15.050  0.0000E+00  0.0000E+00  0.0000E+00  0.0000E+00  0.0000E+00  0.0000E+00  0.0000E+00  0.0000E+00  0.0000E+00
    -14.763  0.0000E+00  0.0000E+00  0.0000E+00  0.0000E+00  0.0000E+00  0.0000E+00  0.0000E+00  0.0000E+00  0.0000E+00
    -14.476  0.0000E+00  0.0000E+00  0.0000E+00  0.0000E+00  0.0000E+00  0.0000E+00  0.0000E+00  0.0000E+00  0.0000E+00
    -14.189  0.0000E+00  0.0000E+00  0.0000E+00  0.0000E+00  0.0000E+00  0.0000E+00  0.0000E+00  0.0000E+00  0.0000E+00
    -13.902  0.0000E+00  0.0000E+00  0.0000E+00  0.0000E+00  0.0000E+00  0.0000E+00  0.0000E+00  0.0000E+00  0.0000E+00
    -13.615  0.0000E+00  0.0000E+00  0.0000E+00  0.0000E+00  0.0000E+00  0.0000E+00  0.0000E+00  0.0000E+00  0.0000E+00
    -13.327  0.0000E+00  0.0000E+00  0.0000E+00  0.0000E+00  0.0000E+00  0.0000E+00  0.0000E+00  0.0000E+00  0.0000E+00
    -13.040  0.0000E+00  0.0000E+00  0.0000E+00  0.0000E+00  0.0000E+00  0.0000E+00  0.0000E+00  0.0000E+00  0.0000E+00
    -12.753  0.0000E+00  0.0000E+00  0.0000E+00  0.0000E+00  0.0000E+00  0.0000E+00  0.0000E+00  0.0000E+00  0.0000E+00
    -12.466  0.0000E+00  0.0000E+00  0.0000E+00  0.0000E+00  0.0000E+00  0.0000E+00  0.0000E+00  0.0000E+00  0.0000E+00
    -12.179  0.0000E+00  0.0000E+00  0.0000E+00  0.0000E+00  0.0000E+00  0.0000E+00  0.0000E+00  0.0000E+00  0.0000E+00
    -11.892  0.0000E+00  0.0000E+00  0.0000E+00  0.0000E+00  0.0000E+00  0.0000E+00  0.0000E+00  0.0000E+00  0.0000E+00
    -11.605  0.0000E+00  0.0000E+00  0.0000E+00  0.0000E+00  0.0000E+00  0.0000E+00  0.0000E+00  0.0000E+00  0.0000E+00
    -11.318  0.0000E+00  0.0000E+00  0.0000E+00  0.0000E+00  0.0000E+00  0.0000E+00  0.0000E+00  0.0000E+00  0.0000E+00
    -11.031  0.0000E+00  0.0000E+00  0.0000E+00  0.0000E+00  0.0000E+00  0.0000E+00  0.0000E+00  0.0000E+00  0.0000E+00
    -10.744  0.0000E+00  0.0000E+00  0.0000E+00  0.0000E+00  0.0000E+00  0.0000E+00  0.0000E+00  0.0000E+00  0.0000E+00
    -10.457  0.0000E+00  0.0000E+00  0.0000E+00  0.0000E+00  0.0000E+00  0.0000E+00  0.0000E+00  0.0000E+00  0.0000E+00
    -10.170  0.0000E+00  0.0000E+00  0.0000E+00  0.0000E+00  0.0000E+00  0.0000E+00  0.0000E+00  0.0000E+00  0.0000E+00
     -9.883  0.0000E+00  0.0000E+00  0.0000E+00  0.0000E+00  0.0000E+00  0.0000E+00  0.0000E+00  0.0000E+00  0.0000E+00
     -9.596  0.0000E+00  0.0000E+00  0.0000E+00  0.0000E+00  0.0000E+00  0.0000E+00  0.0000E+00  0.0000E+00  0.0000E+00
     -9.309  0.0000E+00  0.0000E+00  0.0000E+00  0.0000E+00  0.0000E+00  0.0000E+00  0.0000E+00  0.0000E+00  0.0000E+00
     -9.022  0.0000E+00  0.0000E+00  0.0000E+00  0.0000E+00  0.0000E+00  0.0000E+00  0.0000E+00  0.0000E+00  0.0000E+00
     -8.735  0.0000E+00  0.0000E+00  0.0000E+00  0.0000E+00  0.0000E+00  0.0000E+00  0.0000E+00  0.0000E+00  0.0000E+00
     -8.448  0.0000E+00  0.0000E+00  0.0000E+00  0.0000E+00  0.0000E+00  0.0000E+00  0.0000E+00  0.0000E+00  0.0000E+00
     -8.160  0.0000E+00  0.0000E+00  0.0000E+00  0.0000E+00  0.0000E+00  0.0000E+00  0.0000E+00  0.0000E+00  0.0000E+00
     -7.873  0.0000E+00  0.0000E+00  0.0000E+00  0.0000E+00  0.0000E+00  0.0000E+00  0.0000E+00  0.0000E+00  0.0000E+00
     -7.586  0.0000E+00  0.0000E+00  0.0000E+00  0.0000E+00  0.0000E+00  0.0000E+00  0.0000E+00  0.0000E+00  0.0000E+00
     -7.299  0.0000E+00  0.0000E+00  0.0000E+00  0.0000E+00  0.0000E+00  0.0000E+00  0.0000E+00  0.0000E+00  0.0000E+00
     -7.012  0.0000E+00  0.0000E+00  0.0000E+00  0.0000E+00  0.0000E+00  0.0000E+00  0.0000E+00  0.0000E+00  0.0000E+00
     -6.725  0.0000E+00  0.0000E+00  0.0000E+00  0.0000E+00  0.0000E+00  0.0000E+00  0.0000E+00  0.0000E+00  0.0000E+00
     -6.438  0.0000E+00  0.0000E+00  0.0000E+00  0.0000E+00  0.0000E+00  0.0000E+00  0.0000E+00  0.0000E+00  0.0000E+00
     -6.151  0.0000E+00  0.0000E+00  0.0000E+00  0.0000E+00  0.0000E+00  0.0000E+00  0.0000E+00  0.0000E+00  0.0000E+00
     -5.864  0.0000E+00  0.0000E+00  0.0000E+00  0.0000E+00  0.0000E+00  0.0000E+00  0.0000E+00  0.0000E+00  0.0000E+00
     -5.577  0.0000E+00  0.0000E+00  0.0000E+00  0.0000E+00  0.0000E+00  0.0000E+00  0.0000E+00  0.0000E+00  0.0000E+00
     -5.290  0.0000E+00  0.0000E+00  0.0000E+00  0.0000E+00  0.0000E+00  0.0000E+00  0.0000E+00  0.0000E+00  0.0000E+00
     -5.003  0.0000E+00  0.0000E+00  0.0000E+00  0.0000E+00  0.0000E+00  0.0000E+00  0.0000E+00  0.0000E+00  0.0000E+00
     -4.716  0.0000E+00  0.0000E+00  0.0000E+00  0.0000E+00  0.0000E+00  0.0000E+00  0.0000E+00  0.0000E+00  0.0000E+00
     -4.429  0.0000E+00  0.0000E+00  0.0000E+00  0.0000E+00  0.0000E+00  0.0000E+00  0.0000E+00  0.0000E+00  0.0000E+00
     -4.142  0.0000E+00  0.0000E+00  0.0000E+00  0.0000E+00  0.0000E+00  0.0000E+00  0.0000E+00  0.0000E+00  0.0000E+00
     -3.855  0.0000E+00  0.0000E+00  0.0000E+00  0.0000E+00  0.0000E+00  0.0000E+00  0.0000E+00  0.0000E+00  0.0000E+00
     -3.568  0.0000E+00  0.0000E+00  0.0000E+00  0.0000E+00  0.0000E+00  0.0000E+00  0.0000E+00  0.0000E+00  0.0000E+00
     -3.281  0.0000E+00  0.0000E+00  0.0000E+00  0.0000E+00  0.0000E+00  0.0000E+00  0.0000E+00  0.0000E+00  0.0000E+00
     -2.993  0.0000E+00  0.0000E+00  0.0000E+00  0.0000E+00  0.0000E+00  0.0000E+00  0.0000E+00  0.0000E+00  0.0000E+00
     -2.706  0.0000E+00  0.0000E+00  0.0000E+00  0.0000E+00  0.0000E+00  0.0000E+00  0.0000E+00  0.0000E+00  0.0000E+00
     -2.419  0.0000E+00  0.0000E+00  0.0000E+00  0.0000E+00  0.0000E+00  0.0000E+00  0.0000E+00  0.0000E+00  0.0000E+00
     -2.132  0.0000E+00  0.0000E+00  0.0000E+00  0.0000E+00  0.0000E+00  0.0000E+00  0.0000E+00  0.0000E+00  0.0000E+00
     -1.845  0.0000E+00  0.0000E+00  0.0000E+00  0.0000E+00  0.0000E+00  0.0000E+00  0.0000E+00  0.0000E+00  0.0000E+00
     -1.558  0.0000E+00  0.0000E+00  0.0000E+00  0.0000E+00  0.0000E+00  0.0000E+00  0.0000E+00  0.0000E+00  0.0000E+00
     -1.271  0.0000E+00  0.0000E+00  0.0000E+00  0.0000E+00  0.0000E+00  0.0000E+00  0.0000E+00  0.0000E+00  0.0000E+00
     -0.984  0.0000E+00  0.0000E+00  0.0000E+00  0.0000E+00  0.0000E+00  0.0000E+00  0.0000E+00  0.0000E+00  0.0000E+00
     -0.697  0.0000E+00  0.0000E+00  0.0000E+00  0.0000E+00  0.0000E+00  0.0000E+00  0.0000E+00  0.0000E+00  0.0000E+00
     -0.410  0.0000E+00  0.0000E+00  0.0000E+00  0.0000E+00  0.0000E+00  0.0000E+00  0.0000E+00  0.0000E+00  0.0000E+00
     -0.123  0.0000E+00  0.0000E+00  0.0000E+00  0.0000E+00  0.0000E+00  0.0000E+00  0.0000E+00  0.0000E+00  0.0000E+00
      0.164  0.0000E+00  0.0000E+00  0.0000E+00  0.0000E+00  0.0000E+00  0.0000E+00  0.0000E+00  0.0000E+00  0.0000E+00
      0.451  0.0000E+00  0.0000E+00  0.0000E+00  0.0000E+00  0.0000E+00  0.0000E+00  0.0000E+00  0.0000E+00  0.0000E+00
      0.738  0.0000E+00  0.0000E+00  0.0000E+00  0.0000E+00  0.0000E+00  0.0000E+00  0.0000E+00  0.0000E+00  0.0000E+00
      1.025  0.0000E+00  0.0000E+00  0.0000E+00  0.0000E+00  0.0000E+00  0.0000E+00  0.0000E+00  0.0000E+00  0.0000E+00
      1.312  0.0000E+00  0.0000E+00  0.0000E+00  0.0000E+00  0.0000E+00  0.0000E+00  0.0000E+00  0.0000E+00  0.0000E+00
      1.599  0.0000E+00  0.0000E+00  0.0000E+00  0.0000E+00  0.0000E+00  0.0000E+00  0.0000E+00  0.0000E+00  0.0000E+00
      1.887  0.0000E+00  0.0000E+00  0.0000E+00  0.0000E+00  0.0000E+00  0.0000E+00  0.0000E+00  0.0000E+00  0.0000E+00
      2.174  0.0000E+00  0.0000E+00  0.0000E+00  0.0000E+00  0.0000E+00  0.0000E+00  0.0000E+00  0.0000E+00  0.0000E+00
      2.461  0.0000E+00  0.0000E+00  0.0000E+00  0.0000E+00  0.0000E+00  0.0000E+00  0.0000E+00  0.0000E+00  0.0000E+00
      2.748  0.0000E+00  0.0000E+00  0.0000E+00  0.0000E+00  0.0000E+00  0.0000E+00  0.0000E+00  0.0000E+00  0.0000E+00
      3.035  0.0000E+00  0.0000E+00  0.0000E+00  0.0000E+00  0.0000E+00  0.0000E+00  0.0000E+00  0.0000E+00  0.0000E+00
      3.322  0.0000E+00  0.0000E+00  0.0000E+00  0.0000E+00  0.0000E+00  0.0000E+00  0.0000E+00  0.0000E+00  0.0000E+00
      3.609  0.0000E+00  0.0000E+00  0.0000E+00  0.0000E+00  0.0000E+00  0.0000E+00  0.0000E+00  0.0000E+00  0.0000E+00
      3.896  0.0000E+00  0.0000E+00  0.0000E+00  0.0000E+00  0.0000E+00  0.0000E+00  0.0000E+00  0.0000E+00  0.0000E+00
      4.183  0.0000E+00  0.0000E+00  0.0000E+00  0.0000E+00  0.0000E+00  0.0000E+00  0.0000E+00  0.0000E+00  0.0000E+00
      4.470  0.4356E-16  0.7197E-35  0.2613E-35  0.7197E-35  0.1572E-31  0.1084E-33  0.5892E-19  0.1084E-33  0.1572E-31