    2    2  100    1
  0.1141040E+02  0.2477675E-09  0.2477675E-09  0.4292514E-09  0.5000000E-15
  1.000000000000000E-004
  CAR 
 Pt-hcc                                  
     32     70     24
 
  0.0000000E+00  0.0000000E+00  0.0000000E+00  0.1250000E-02
      1        -36.108862   1.000000
      2        -35.166559   1.000000
      3        -35.166559   1.000000
      4        -35.042567   1.000000
      5        -35.042566   1.000000
      6        -34.999378   1.000000
      7          4.737702   1.000000
      8          7.496281   1.000000
      9         11.809484   1.000000
     10         12.657677   1.000000
     11         12.657678   1.000000
     12         13.303572   1.000000
     13         13.303572   1.000000
     14         15.304306   1.000000
     15         15.304306   1.000000
     16         16.255414   1.000000
     17         18.014603   1.000000
     18         18.014603   1.000000
     19         25.717674   0.000000
     20         32.353272   0.000000
     21         33.438213   0.000000
     22         35.285081   0.000000
     23         41.891797   0.000000
     24         41.891797   0.000000
 
  0.1000000E+00 -0.2081668E-16  0.0000000E+00  0.7500000E-02
      1        -36.069374   1.000000
      2        -35.286903   1.000000
      3        -35.200925   1.000000
      4        -35.163558   1.000000
      5        -35.064548   1.000000
      6        -35.007744   1.000000
      7          5.245321   1.000000
      8          7.969689   1.000000
      9         11.696859   1.000000
     10         12.651133   1.000000
     11         13.033732   1.000000
     12         13.097717   1.000000
     13         13.727532   1.000000
     14         14.191410   1.000000
     15         14.992688   1.000000
     16         15.143013   1.000000
     17         18.153378   1.000000
     18         20.171684   0.000000
     19         25.630348   0.000000
     20         33.368636   0.000000
     21         34.199076   0.000000
     22         36.254359   0.000000
     23         39.023123   0.000000
     24         40.879027   0.000000
 
  0.2000000E+00 -0.4163336E-16  0.0000000E+00  0.7500000E-02
      1        -35.958787   1.000000
      2        -35.594215   1.000000
      3        -35.470712   1.000000
      4        -35.286898   1.000000
      5        -35.123548   1.000000
      6        -35.034998   1.000000
      7          6.558815   1.000000
      8          8.904203   1.000000
      9         11.369436   1.000000
     10         12.047560   1.000000
     11         12.211077   1.000000
     12         13.693176   1.000000
     13         14.323626   1.000000
     14         14.326743   1.000000
     15         14.360759   1.000000
     16         14.933968   1.000000
     17         18.371369   0.836142
     18         23.124331   0.000000
     19         25.340508   0.000000
     20         34.778390   0.000000
     21         34.911250   0.000000
     22         37.538451   0.000000
     23         37.912453   0.000000
     24         38.439496   0.000000
 
  0.3000000E+00 -0.2775558E-16  0.0000000E+00  0.7500000E-02
      1        -35.968747   1.000000
      2        -35.834421   1.000000
      3        -35.803516   1.000000
      4        -35.388916   1.000000
      5        -35.197603   1.000000
      6        -35.087659   1.000000
      7          7.897932   1.000000
      8          8.806929   1.000000
      9         10.350643   1.000000
     10         11.877614   1.000000
     11         12.499453   1.000000
     12         13.496614   1.000000
     13         13.665249   1.000000
     14         15.624156   1.000000
     15         16.226939   1.000000
     16         16.688566   1.000000
     17         18.488515   0.009780
     18         25.091703   0.000000
     19         25.953656   0.000000
     20         31.606981   0.000000
     21         33.246306   0.000000
     22         35.450191   0.000000
     23         38.748001   0.000000
     24         39.316869   0.000000
 
  0.4000000E+00 -0.2775558E-16  0.0000000E+00  0.7500000E-02
      1        -36.265509   1.000000
      2        -36.117380   1.000000
      3        -35.644925   1.000000
      4        -35.468892   1.000000
      5        -35.259313   1.000000
      6        -35.161554   1.000000
      7          8.104499   1.000000
      8          8.489436   1.000000
      9          9.277172   1.000000
     10         12.749273   1.000000
     11         12.912615   1.000000
     12         13.205848   1.000000
     13         13.752939   1.000000
     14         18.143583   1.000000
     15         18.490386   0.008480
     16         18.516840   0.000857
     17         18.614015   0.000000
     18         25.496758   0.000000
     19         27.642263   0.000000
     20         28.175275   0.000000
     21         31.967272   0.000000
     22         32.779643   0.000000
     23         34.582353   0.000000
     24         38.266679   0.000000
 
  0.5000000E+00 -0.2775558E-16  0.0000000E+00  0.3750000E-02
      1        -36.377813   1.000000
      2        -36.223412   1.000000
      3        -35.565724   1.000000
      4        -35.499220   1.000000
      5        -35.282964   1.000000
      6        -35.209453   1.000000
      7          7.914006   1.000000
      8          8.447863   1.000000
      9          8.909362   1.000000
     10         12.704767   1.000000
     11         13.043212   1.000000
     12         13.534253   1.000000
     13         14.006993   1.000000
     14         18.516476   0.000887
     15         19.010414   0.000000
     16         19.380261   0.000000
     17         21.590545   0.000000
     18         23.533140   0.000000
     19         27.781018   0.000000
     20         29.080451   0.000000
     21         31.149001   0.000000
     22         31.509068   0.000000
     23         31.566613   0.000000
     24         37.863112   0.000000
 
  0.1000000E+00  0.1000000E+00  0.0000000E+00  0.7500000E-02
      1        -35.994256   1.000000
      2        -35.477046   1.000000
      3        -35.401822   1.000000
      4        -35.241427   1.000000
      5        -35.122650   1.000000
      6        -35.025198   1.000000
      7          6.175965   1.000000
      8          8.773877   1.000000
      9         11.243176   1.000000
     10         12.545199   1.000000
     11         12.699306   1.000000
     12         12.998021   1.000000
     13         13.936263   1.000000
     14         14.046113   1.000000
     15         14.693520   1.000000
     16         15.087890   1.000000
     17         18.203367   1.000000
     18         22.380464   0.000000
     19         25.441815   0.000000
     20         34.838112   0.000000
     21         35.448113   0.000000
     22         36.961979   0.000000
     23         37.490975   0.000000
     24         38.915591   0.000000
 
  0.2000000E+00  0.1000000E+00  0.0000000E+00  0.1500000E-01
      1        -35.860255   1.000000
      2        -35.793062   1.000000
      3        -35.711929   1.000000
      4        -35.361533   1.000000
      5        -35.213741   1.000000
      6        -35.065958   1.000000
      7          7.660751   1.000000
      8          9.445087   1.000000
      9         11.024317   1.000000
     10         11.055966   1.000000
     11         12.153459   1.000000
     12         13.106205   1.000000
     13         14.017639   1.000000
     14         14.472124   1.000000
     15         15.786017   1.000000
     16         16.533893   1.000000
     17         18.221914   1.000000
     18         25.163528   0.000000
     19         25.203289   0.000000
     20         33.487383   0.000000
     21         34.682178   0.000000
     22         35.207469   0.000000
     23         37.579000   0.000000
     24         39.759623   0.000000
 
  0.3000000E+00  0.1000000E+00  0.0000000E+00  0.1500000E-01
      1        -36.118010   1.000000
      2        -35.995326   1.000000
      3        -35.700111   1.000000
      4        -35.485024   1.000000
      5        -35.300219   1.000000
      6        -35.133011   1.000000
      7          8.645888   1.000000
      8          8.948164   1.000000
      9          9.746772   1.000000
     10         11.979783   1.000000
     11         12.648191   1.000000
     12         12.916473   1.000000
     13         13.650077   1.000000
     14         15.859718   1.000000
     15         17.626849   1.000000
     16         18.208577   1.000000
     17         18.902832   0.000000
     18         25.553722   0.000000
     19         27.788467   0.000000
     20         29.336001   0.000000
     21         32.470277   0.000000
     22         33.149755   0.000000
     23         37.277086   0.000000
     24         38.226636   0.000000
 
  0.4000000E+00  0.1000000E+00  0.0000000E+00  0.1500000E-01
      1        -36.315625   1.000000
      2        -36.165794   1.000000
      3        -35.567520   1.000000
      4        -35.559893   1.000000
      5        -35.352949   1.000000
      6        -35.207454   1.000000
      7          8.407366   1.000000
      8          8.878690   1.000000
      9          9.070022   1.000000
     10         12.597021   1.000000
     11         12.974548   1.000000
     12         13.195533   1.000000
     13         13.684817   1.000000
     14         17.967878   1.000000
     15         18.179794   1.000000
     16         18.642002   0.000000
     17         21.395339   0.000000
     18         25.216369   0.000000
     19         27.442295   0.000000
     20         29.558957   0.000000
     21         30.027700   0.000000
     22         32.330461   0.000000
     23         33.329083   0.000000
     24         37.636182   0.000000
 
  0.2000000E+00  0.2000000E+00  0.0000000E+00  0.7500000E-02
      1        -35.980538   1.000000
      2        -35.964860   1.000000
      3        -35.720056   1.000000
      4        -35.503743   1.000000
      5        -35.372793   1.000000
      6        -35.123068   1.000000
      7          9.143626   1.000000
      8         10.074560   1.000000
      9         10.319171   1.000000
     10         10.340525   1.000000
     11         12.302804   1.000000
     12         12.562488   1.000000
     13         13.974932   1.000000
     14         14.587011   1.000000
     15         17.589283   1.000000
     16         17.886666   1.000000
     17         19.027384   0.000000
     18         25.672180   0.000000
     19         27.808381   0.000000
     20         30.712022   0.000000
     21         31.334885   0.000000
     22         34.519280   0.000000
     23         37.549993   0.000000
     24         38.463691   0.000000
 
  0.3000000E+00  0.2000000E+00  0.0000000E+00  0.1500000E-01
      1        -36.171160   1.000000
      2        -36.067421   1.000000
      3        -35.668060   1.000000
      4        -35.570636   1.000000
      5        -35.507327   1.000000
      6        -35.204670   1.000000
      7          9.391655   1.000000
      8          9.664868   1.000000
      9          9.892698   1.000000
     10         11.713447   1.000000
     11         12.097327   1.000000
     12         13.164065   1.000000
     13         13.409709   1.000000
     14         15.922739   1.000000
     15         17.637022   1.000000
     16         18.355973   0.921346
     17         21.585815   0.000000
     18         26.590838   0.000000
     19         27.688659   0.000000
     20         28.759344   0.000000
     21         30.348669   0.000000
     22         34.083110   0.000000
     23         35.358391   0.000000
     24         37.118017   0.000000
 
  0.4000000E+00  0.2000000E+00  0.0000000E+00  0.7500000E-02
      1        -36.241705   1.000000
      2        -36.092192   1.000000
      3        -35.747498   1.000000
      4        -35.557426   1.000000
      5        -35.486058   1.000000
      6        -35.263509   1.000000
      7          9.143240   1.000000
      8          9.491839   1.000000
      9          9.895079   1.000000
     10         12.325312   1.000000
     11         12.560052   1.000000
     12         12.576324   1.000000
     13         13.821470   1.000000
     14         17.224701   1.000000
     15         17.545858   1.000000
     16         18.046146   1.000000
     17         23.305132   0.000000
     18         24.304023   0.000000
     19         27.145980   0.000000
     20         29.985420   0.000000
     21         31.617170   0.000000
     22         33.408826   0.000000
     23         33.868627   0.000000
     24         36.545319   0.000000
 
  0.3000000E+00  0.3000000E+00  0.0000000E+00  0.7500000E-02
      1        -36.127418   1.000000
      2        -36.014011   1.000000
      3        -35.868684   1.000000
      4        -35.725786   1.000000
      5        -35.439762   1.000000
      6        -35.300267   1.000000
      7          9.247690   1.000000
      8         10.462312   1.000000
      9         10.793999   1.000000
     10         11.514757   1.000000
     11         12.046611   1.000000
     12         12.507353   1.000000
     13         13.988539   1.000000
     14         16.524435   1.000000
     15         17.242734   1.000000
     16         17.752066   1.000000
     17         23.478235   0.000000
     18         24.543503   0.000000
     19         25.977074   0.000000
     20         31.465951   0.000000
     21         32.977209   0.000000
     22         34.511795   0.000000
     23         34.944268   0.000000
     24         35.622384   0.000000
 
  0.0000000E+00  0.0000000E+00  0.1250000E+00  0.2500000E-02
      1        -36.068656   1.000000
      2        -35.161774   1.000000
      3        -35.161773   1.000000
      4        -35.047357   1.000000
      5        -35.047356   1.000000
      6        -35.043946   1.000000
      7          4.928335   1.000000
      8          7.513031   1.000000
      9         11.750892   1.000000
     10         12.625210   1.000000
     11         12.625210   1.000000
     12         13.234431   1.000000
     13         13.234432   1.000000
     14         15.475644   1.000000
     15         15.475644   1.000000
     16         15.581974   1.000000
     17         17.981839   1.000000
     18         17.981839   1.000000
     19         26.611333   0.000000
     20         31.852783   0.000000
     21         34.287274   0.000000
     22         34.863880   0.000000
     23         40.671913   0.000000
     24         40.671914   0.000000
 
  0.1000000E+00 -0.2081668E-16  0.1250000E+00  0.1500000E-01
      1        -36.031998   1.000000
      2        -35.280216   1.000000
      3        -35.195765   1.000000
      4        -35.177702   1.000000
      5        -35.069737   1.000000
      6        -35.039371   1.000000
      7          5.430208   1.000000
      8          7.994721   1.000000
      9         11.702261   1.000000
     10         12.495809   1.000000
     11         12.847506   1.000000
     12         13.049590   1.000000
     13         13.650544   1.000000
     14         14.154111   1.000000
     15         15.195872   1.000000
     16         15.212516   1.000000
     17         18.096849   1.000000
     18         19.651743   0.000000
     19         26.618696   0.000000
     20         32.834937   0.000000
     21         35.051417   0.000000
     22         35.752302   0.000000
     23         38.808274   0.000000
     24         40.415912   0.000000
 
  0.2000000E+00 -0.4163336E-16  0.1250000E+00  0.1500000E-01
      1        -35.936456   1.000000
      2        -35.579344   1.000000
      3        -35.484369   1.000000
      4        -35.280471   1.000000
      5        -35.129595   1.000000
      6        -35.060016   1.000000
      7          6.707455   1.000000
      8          8.955974   1.000000
      9         11.414040   1.000000
     10         11.730570   1.000000
     11         12.151748   1.000000
     12         13.500459   1.000000
     13         14.061681   1.000000
     14         14.667835   1.000000
     15         14.711862   1.000000
     16         14.974436   1.000000
     17         18.268080   0.999952
     18         21.936493   0.000000
     19         26.715320   0.000000
     20         34.665794   0.000000
     21         34.979728   0.000000
     22         37.162114   0.000000
     23         38.443112   0.000000
     24         38.535602   0.000000
 
  0.3000000E+00 -0.2775558E-16  0.1250000E+00  0.1500000E-01
      1        -35.995118   1.000000
      2        -35.857077   1.000000
      3        -35.737511   1.000000
      4        -35.381686   1.000000
      5        -35.205153   1.000000
      6        -35.104397   1.000000
      7          7.901931   1.000000
      8          8.869560   1.000000
      9         10.411283   1.000000
     10         11.513605   1.000000
     11         12.543505   1.000000
     12         13.764321   1.000000
     13         13.769147   1.000000
     14         15.691823   1.000000
     15         16.263687   1.000000
     16         16.596933   1.000000
     17         18.361713   0.894687
     18         23.518123   0.000000
     19         27.294828   0.000000
     20         31.992417   0.000000
     21         33.592764   0.000000
     22         35.797946   0.000000
     23         38.048765   0.000000
     24         39.473695   0.000000
 
  0.4000000E+00 -0.2775558E-16  0.1250000E+00  0.1500000E-01
      1        -36.274522   1.000000
      2        -36.134809   1.000000
      3        -35.611016   1.000000
      4        -35.461222   1.000000
      5        -35.267442   1.000000
      6        -35.169050   1.000000
      7          8.063922   1.000000
      8          8.317065   1.000000
      9          9.641916   1.000000
     10         11.627883   1.000000
     11         13.345410   1.000000
     12         13.391036   1.000000
     13         14.564889   1.000000
     14         18.012229   1.000000
     15         18.169675   1.000000
     16         18.476567   0.022927
     17         18.690623   0.000000
     18         24.420749   0.000000
     19         27.461781   0.000000
     20         29.308299   0.000000
     21         32.282030   0.000000
     22         33.214956   0.000000
     23         34.538031   0.000000
     24         38.203435   0.000000
 
  0.5000000E+00 -0.2775558E-16  0.1250000E+00  0.7500000E-02
      1        -36.384576   1.000000
      2        -36.239755   1.000000
      3        -35.538902   1.000000
      4        -35.491330   1.000000
      5        -35.291414   1.000000
      6        -35.211120   1.000000
      7          7.971460   1.000000
      8          8.054109   1.000000
      9          9.392664   1.000000
     10         11.696279   1.000000
     11         13.190544   1.000000
     12         13.629578   1.000000
     13         15.193250   1.000000
     14         18.172443   1.000000
     15         19.044849   0.000000
     16         19.368231   0.000000
     17         21.141806   0.000000
     18         23.314874   0.000000
     19         27.736273   0.000000
     20         28.700846   0.000000
     21         31.755417   0.000000
     22         31.836271   0.000000
     23         32.034963   0.000000
     24         37.981637   0.000000
 
  0.1000000E+00  0.1000000E+00  0.1250000E+00  0.1500000E-01
      1        -35.965127   1.000000
      2        -35.466167   1.000000
      3        -35.411126   1.000000
      4        -35.241812   1.000000
      5        -35.128201   1.000000
      6        -35.051615   1.000000
      7          6.342380   1.000000
      8          8.817866   1.000000
      9         11.296361   1.000000
     10         12.060663   1.000000
     11         12.596820   1.000000
     12         13.004898   1.000000
     13         13.927466   1.000000
     14         14.249555   1.000000
     15         14.783698   1.000000
     16         15.223558   1.000000
     17         18.120294   1.000000
     18         21.417292   0.000000
     19         26.677801   0.000000
     20         34.393726   0.000000
     21         36.051724   0.000000
     22         36.464087   0.000000
     23         37.410850   0.000000
     24         39.426928   0.000000
 
  0.2000000E+00  0.1000000E+00  0.1250000E+00  0.3000000E-01
      1        -35.889819   1.000000
      2        -35.750097   1.000000
      3        -35.703609   1.000000
      4        -35.359439   1.000000
      5        -35.220279   1.000000
      6        -35.084072   1.000000
      7          7.751375   1.000000
      8          9.518287   1.000000
      9         10.796918   1.000000
     10         11.176642   1.000000
     11         12.029947   1.000000
     12         13.058372   1.000000
     13         14.203397   1.000000
     14         14.453564   1.000000
     15         15.975172   1.000000
     16         16.435965   1.000000
     17         18.132959   1.000000
     18         23.221108   0.000000
     19         27.145586   0.000000
     20         33.655269   0.000000
     21         34.799678   0.000000
     22         35.545672   0.000000
     23         37.405615   0.000000
     24         40.199813   0.000000
 
  0.3000000E+00  0.1000000E+00  0.1250000E+00  0.3000000E-01
      1        -36.130063   1.000000
      2        -36.013193   1.000000
      3        -35.659801   1.000000
      4        -35.478439   1.000000
      5        -35.308731   1.000000
      6        -35.140794   1.000000
      7          8.507183   1.000000
      8          8.986467   1.000000
      9          9.995125   1.000000
     10         11.377065   1.000000
     11         12.813855   1.000000
     12         13.350814   1.000000
     13         13.707814   1.000000
     14         15.870284   1.000000
     15         17.717178   1.000000
     16         17.833437   1.000000
     17         19.035026   0.000000
     18         24.515410   0.000000
     19         27.942709   0.000000
     20         30.327430   0.000000
     21         32.753338   0.000000
     22         33.450128   0.000000
     23         36.904142   0.000000
     24         38.439904   0.000000
 
  0.4000000E+00  0.1000000E+00  0.1250000E+00  0.3000000E-01
      1        -36.322433   1.000000
      2        -36.182670   1.000000
      3        -35.575775   1.000000
      4        -35.517548   1.000000
      5        -35.364398   1.000000
      6        -35.205479   1.000000
      7          8.380140   1.000000
      8          8.497589   1.000000
      9          9.664108   1.000000
     10         11.616818   1.000000
     11         12.774175   1.000000
     12         13.818054   1.000000
     13         14.445627   1.000000
     14         17.769558   1.000000
     15         17.975060   1.000000
     16         18.725330   0.000000
     17         21.294391   0.000000
     18         24.768594   0.000000
     19         27.325724   0.000000
     20         29.639873   0.000000
     21         30.500321   0.000000
     22         32.591614   0.000000
     23         33.628533   0.000000
     24         37.688117   0.000000
 
  0.2000000E+00  0.2000000E+00  0.1250000E+00  0.1500000E-01
      1        -35.992553   1.000000
      2        -35.986498   1.000000
      3        -35.670262   1.000000
      4        -35.506898   1.000000
      5        -35.377484   1.000000
      6        -35.130790   1.000000
      7          9.126235   1.000000
      8          9.865023   1.000000
      9         10.339988   1.000000
     10         10.585121   1.000000
     11         12.367414   1.000000
     12         12.555474   1.000000
     13         13.772475   1.000000
     14         14.811068   1.000000
     15         17.481571   1.000000
     16         17.795116   1.000000
     17         19.173252   0.000000
     18         24.670805   0.000000
     19         28.268349   0.000000
     20         31.458912   0.000000
     21         31.593445   0.000000
     22         34.692400   0.000000
     23         37.368491   0.000000
     24         38.711469   0.000000
 
  0.3000000E+00  0.2000000E+00  0.1250000E+00  0.3000000E-01
      1        -36.176727   1.000000
      2        -36.084739   1.000000
      3        -35.676002   1.000000
      4        -35.553320   1.000000
      5        -35.496637   1.000000
      6        -35.201007   1.000000
      7          9.182116   1.000000
      8          9.748113   1.000000
      9         10.136797   1.000000
     10         11.201150   1.000000
     11         12.452069   1.000000
     12         13.069971   1.000000
     13         13.600940   1.000000
     14         16.010290   1.000000
     15         17.248933   1.000000
     16         18.562522   0.000005
     17         21.663454   0.000000
     18         26.502906   0.000000
     19         27.054468   0.000000
     20         28.942032   0.000000
     21         31.197539   0.000000
     22         34.184799   0.000000
     23         35.116117   0.000000
     24         37.347504   0.000000
 
  0.4000000E+00  0.2000000E+00  0.1250000E+00  0.1500000E-01
      1        -36.245900   1.000000
      2        -36.109172   1.000000
      3        -35.753825   1.000000
      4        -35.571991   1.000000
      5        -35.452952   1.000000
      6        -35.252911   1.000000
      7          8.966270   1.000000
      8          9.564355   1.000000
      9         10.234984   1.000000
     10         11.545998   1.000000
     11         12.125111   1.000000
     12         13.438759   1.000000
     13         14.076181   1.000000
     14         17.141673   1.000000
     15         17.266459   1.000000
     16         18.190865   1.000000
     17         23.377201   0.000000
     18         24.329523   0.000000
     19         27.529492   0.000000
     20         29.714891   0.000000
     21         30.797672   0.000000
     22         34.027128   0.000000
     23         34.267286   0.000000
     24         36.398283   0.000000
 
  0.3000000E+00  0.3000000E+00  0.1250000E+00  0.1500000E-01
      1        -36.124857   1.000000
      2        -36.032314   1.000000
      3        -35.880341   1.000000
      4        -35.739379   1.000000
      5        -35.410451   1.000000
      6        -35.285236   1.000000
      7          9.336218   1.000000
      8         10.391752   1.000000
      9         10.781372   1.000000
     10         11.214346   1.000000
     11         12.386150   1.000000
     12         12.387698   1.000000
     13         13.994484   1.000000
     14         16.674717   1.000000
     15         16.840224   1.000000
     16         17.931745   1.000000
     17         23.618954   0.000000
     18         24.712898   0.000000
     19         26.425170   0.000000
     20         30.468835   0.000000
     21         33.276448   0.000000
     22         33.437299   0.000000
     23         34.994638   0.000000
     24         36.596854   0.000000
 
  0.0000000E+00  0.0000000E+00  0.2500000E+00  0.2500000E-02
      1        -35.952903   1.000000
      2        -35.168297   1.000000
      3        -35.148892   1.000000
      4        -35.148891   1.000000
      5        -35.060868   1.000000
      6        -35.060868   1.000000
      7          5.464811   1.000000
      8          7.523997   1.000000
      9         11.622770   1.000000
     10         12.573853   1.000000
     11         12.573854   1.000000
     12         13.058768   1.000000
     13         13.058768   1.000000
     14         14.145034   1.000000
     15         15.922337   1.000000
     16         15.922337   1.000000
     17         17.848998   1.000000
     18         17.848998   1.000000
     19         28.699612   0.000000
     20         31.432492   0.000000
     21         33.985758   0.000000
     22         35.509653   0.000000
     23         39.728118   0.000000
     24         39.728118   0.000000
 
  0.1000000E+00 -0.2081668E-16  0.2500000E+00  0.1500000E-01
      1        -35.925603   1.000000
      2        -35.263985   1.000000
      3        -35.239003   1.000000
      4        -35.180621   1.000000
      5        -35.108113   1.000000
      6        -35.084088   1.000000
      7          5.953632   1.000000
      8          8.026788   1.000000
      9         11.670335   1.000000
     10         12.240268   1.000000
     11         12.403034   1.000000
     12         12.975646   1.000000
     13         13.464179   1.000000
     14         13.655795   1.000000
     15         15.690319   1.000000
     16         15.699640   1.000000
     17         17.901715   1.000000
     18         18.779834   0.000000
     19         28.748265   0.000000
     20         32.396000   0.000000
     21         34.858910   0.000000
     22         36.226679   0.000000
     23         38.560109   0.000000
     24         39.728109   0.000000
 
  0.2000000E+00 -0.4163336E-16  0.2500000E+00  0.1500000E-01
      1        -35.875024   1.000000
      2        -35.551482   1.000000
      3        -35.507903   1.000000
      4        -35.262693   1.000000
      5        -35.147053   1.000000
      6        -35.131722   1.000000
      7          7.133446   1.000000
      8          9.062510   1.000000
      9         11.137667   1.000000
     10         11.611773   1.000000
     11         11.775009   1.000000
     12         13.216853   1.000000
     13         13.933233   1.000000
     14         14.572498   1.000000
     15         15.454595   1.000000
     16         15.461869   1.000000
     17         17.956073   1.000000
     18         20.309450   0.000000
     19         28.827989   0.000000
     20         34.425592   0.000000
     21         35.395177   0.000000
     22         36.698707   0.000000
     23         38.913783   0.000000
     24         39.039265   0.000000
 
  0.3000000E+00 -0.2775558E-16  0.2500000E+00  0.1500000E-01
      1        -36.024322   1.000000
      2        -35.898543   1.000000
      3        -35.617018   1.000000
      4        -35.361145   1.000000
      5        -35.226084   1.000000
      6        -35.154796   1.000000
      7          7.970675   1.000000