       N       E                     dE             d eps       ncg     rms          rms(c)
DAV:   1     0.134718329898E+03    0.13472E+03   -0.23585E+04  3360   0.135E+03
DAV:   2    -0.798307516571E+01   -0.14270E+03   -0.14172E+03  3432   0.282E+02
DAV:   3    -0.888640152419E+01   -0.90333E+00   -0.90274E+00  4728   0.292E+01
DAV:   4    -0.888816429985E+01   -0.17628E-02   -0.17628E-02  4608   0.938E-01
DAV:   5    -0.888816471421E+01   -0.41436E-06   -0.41323E-06  5064   0.158E-02    0.437E+01
DAV:   6    -0.846458931924E+01    0.42358E+00   -0.97872E-01  3456   0.723E+00    0.210E+01
DAV:   7    -0.839906331126E+01    0.65526E-01   -0.29710E-01  4080   0.353E+00    0.273E+00
DAV:   8    -0.839392693450E+01    0.51364E-02   -0.22210E-02  3720   0.140E+00    0.435E-01
DAV:   9    -0.839383493664E+01    0.91998E-04   -0.97196E-05  4152   0.982E-02    0.233E-02
DAV:  10    -0.839383455620E+01    0.38044E-06   -0.12284E-05  4872   0.267E-02    0.471E-03
DAV:  11    -0.839383437176E+01    0.18444E-06   -0.27543E-07  2592   0.439E-03
   1 F= -.83938344E+01 E0= -.83928088E+01  d E =-.839383E+01
