 vasp.6.3.2 27Jun22 (build Aug 12 2022 00:53:59) complex                        
  
 executed on               tv2STD date 2024.12.03  01:37:56
 running   24 mpi-ranks, with    1 threads/rank
 distrk:  each k-point on   24 cores,    1 groups
 distr:  one band on NCORE=   1 cores,   24 groups


--------------------------------------------------------------------------------------------------------


 INCAR:
   SYSTEM = Pt-hcc
   NWRITE = 2    write-flag
   ISTART = 0    job   : 0-new, 1-cont, 2-samecut
   ICHARG = 2    charge: 0-wave, 1-file, 2-atom, >10-const
   INIWAV = 1    electr: 0-lowe 1-rand  2-diag
   ENCUT = 450.0     energy cutoff in eV
   PREC = Accurate      normal | accurate
   ADDGRID = .FALSE.  (use fine grid)
   NELM = 100     number of ELM steps
   EDIFF = 1E-06    energy stopping-criterion for ELM
   LREAL = .FALSE.      real-space projection (.FALSE., .TRUE., On, Auto)
   ALGO = Normal     Normal, Fast, Very_Fast
   LWAVE = .TRUE.
   LCHARG = .TRUE.
   NSW = 100       max number of geometry steps
   IBRION = 2     ionic relax: 0-MD, 1-quasi-Newton, 2-CG, 3-Damped MD
   EDIFFG = -0.02  force (eV/A) stopping-criterion for geometry steps
   ISIF = 2     (1:force\=y stress\=trace only ions\=y shape\=n volume\=n)
   ISYM = 1     (1-use symmetry, 0-no symmetry)
   ISMEAR = 0     (-1-Fermi, 1-Methfessel/Paxton)
   SIGMA = 0.05   broadening in eV
   LORBIT = 11

 POTCAR:    PAW_PBE Pt_pv 12Dec2005               
 POTCAR:    PAW_PBE Pt_pv 12Dec2005               
   SHA256 =  e5abf7e8cd8db70d0153315afc5ad66b6e3eeee29cc2d5b91b16730957c1d208 Pt_pv/POTCAR          
   COPYR  = (c) Copyright 12Dec2005 Georg Kresse                                                    
   COPYR  = This file is part of the software VASP. Any use, copying, and all other rights are regul
   COPYR  = If you do not have a valid VASP license, you may not use, copy or distribute this file. 
   VRHFIN =Pt: 5ps1d9                                                                               
   LEXCH  = PE                                                                                      
   EATOM  =  2428.2504 eV,  178.4714 Ry                                                             
                                                                                                    
   TITEL  = PAW_PBE Pt_pv 12Dec2005                                                                 
   LULTRA =        F    use ultrasoft PP ?                                                          
   IUNSCR =        1    unscreen: 0-lin 1-nonlin 2-no                                               
   RPACOR =    2.000    partial core radius                                                         
   POMASS =  195.080; ZVAL   =   16.000    mass and valenz                                          
   RCORE  =    2.200    outmost cutoff radius                                                       
   RWIGS  =    2.200; RWIGS  =    1.164    wigner-seitz radius (au A)                               
   ENMAX  =  294.607; ENMIN  =  220.955 eV                                                          
   ICORE  =        3    local potential                                                             
   LCOR   =        T    correct aug charges                                                         
   LPAW   =        T    paw PP                                                                      
   EAUG   =  527.014                                                                                
   DEXC   =    0.000                                                                                
   RMAX   =    2.247    core radius for proj-oper                                                   
   RAUG   =    1.300    factor for augmentation sphere                                              
   RDEP   =    2.279    radius for radial grids                                                     
   RDEPT  =    1.878    core radius for aug-charge                                                  
                                                                                                    
   Atomic configuration                                                                             
   16 entries                                                                                       
     n  l   j            E        occ.                                                              
     1  0  0.50    -78401.1885   2.0000                                                             
     2  0  0.50    -13770.7750   2.0000                                                             
     2  1  1.50    -11931.0468   6.0000                                                             
     3  0  0.50     -3234.7234   2.0000                                                             
     3  1  1.50     -2699.2216   6.0000                                                             
     3  2  2.50     -2119.5714  10.0000                                                             
     4  0  0.50      -695.1528   2.0000                                                             
     4  1  1.50      -519.6034   6.0000                                                             
     4  2  2.50      -306.6786  10.0000                                                             
     4  3  3.50       -70.1041  14.0000                                                             
     5  0  0.50      -101.7747   2.0000                                                             
     5  1  1.50       -55.9873   6.0000                                                             
     6  1  1.50        -6.8029   0.0000                                                             
     5  2  2.50        -6.1423   9.0000                                                             
     6  0  0.50        -5.6573   1.0000                                                             
     5  3  2.50        -1.3606   0.0000                                                             
   Description                                                                                      
     l       E           TYP  RCUT    TYP  RCUT                                                     
     1    -55.9873477     23  2.000                                                                 
     1     27.2116520     23  2.000                                                                 
     2     -6.1423404     23  2.200                                                                 
     2     -4.6754623     23  2.200                                                                 
     0     -5.6573207     23  2.200                                                                 
     0     47.6203910     23  2.200                                                                 
     3      6.8029130     23  2.200                                                                 
  local pseudopotential read in
  partial core-charges read in
  partial kinetic energy density read in
  atomic valenz-charges read in
  non local Contribution for L=           1  read in
    real space projection operators read in
  non local Contribution for L=           1  read in
    real space projection operators read in
  non local Contribution for L=           2  read in
    real space projection operators read in
  non local Contribution for L=           2  read in
    real space projection operators read in
  non local Contribution for L=           0  read in
    real space projection operators read in
  non local Contribution for L=           0  read in
    real space projection operators read in
    PAW grid and wavefunctions read in
 
   number of l-projection  operators is LMAX  =           6
   number of lm-projection operators is LMMAX =          18
 
  PAW_PBE Pt_pv 12Dec2005               :
 energy of atom  1       EATOM=-2428.2504
 kinetic energy error for atom=    0.0356 (will be added to EATOM!!)
 
 
 POSCAR: Pt
  positions in cartesian coordinates
  No initial velocities read in
 exchange correlation table for  LEXCH =        8
   RHO(1)=    0.500       N(1)  =     2000
   RHO(2)=  100.500       N(2)  =     4000
 


--------------------------------------------------------------------------------------------------------


 ion  position               nearest neighbor table
   1  0.000  0.000  0.000-   2 2.58   2 2.58   2 2.58   2 2.58   2 2.58   2 2.58
   2  0.333  0.667  0.500-   1 2.58   1 2.58   1 2.58   1 2.58   1 2.58   1 2.58
 
  LATTYP: Found a hexagonal cell.
 ALAT       =     2.4776749097
 C/A-ratio  =     1.7324766951
  
  Lattice vectors:
  
 A1 = (   2.4776749097,   0.0000000000,   0.0000000000)
 A2 = (  -1.2388374549,   2.1457294141,   0.0000000000)
 A3 = (   0.0000000000,   0.0000000000,   4.2925140393)


Analysis of symmetry for initial positions (statically):
=====================================================================
 Subroutine PRICEL returns:
 Original cell was already a primitive cell.
 

 Routine SETGRP: Setting up the symmetry group for a 
 hexagonal supercell.


 Subroutine GETGRP returns: Found 24 space group operations
 (whereof 12 operations were pure point group operations)
 out of a pool of 24 trial point group operations.


The static configuration has the point symmetry D_3h.
 The point group associated with its full space group is D_6h.


Analysis of symmetry for dynamics (positions and initial velocities):
=====================================================================
 Subroutine PRICEL returns:
 Original cell was already a primitive cell.
 

 Routine SETGRP: Setting up the symmetry group for a 
 hexagonal supercell.


 Subroutine GETGRP returns: Found 24 space group operations
 (whereof 12 operations were pure point group operations)
 out of a pool of 24 trial point group operations.


The dynamic configuration has the point symmetry D_3h.
 The point group associated with its full space group is D_6h.


 Subroutine INISYM returns: Found 24 space group operations
 (whereof 12 operations are pure point group operations),
 and found     1 'primitive' translations


----------------------------------------------------------------------------------------

                                     Primitive cell                                     

  volume of cell :      22.8208

  direct lattice vectors                    reciprocal lattice vectors
     2.477674910  0.000000000  0.000000000     0.403604200  0.233020994  0.000000000
    -1.238837455  2.145729414  0.000000000     0.000000000  0.466041987  0.000000000
     0.000000000  0.000000000  4.292514039     0.000000000  0.000000000  0.232963711

  length of vectors
     2.477674910  2.477674910  4.292514039     0.466041987  0.466041987  0.232963711

  position of ions in fractional coordinates (direct lattice)
     0.000000000  0.000000000  0.000000000
     0.333333333  0.666666667  0.500000000

  ion indices of the primitive-cell ions
   primitive index   ion index
                 1           1
                 2           2

----------------------------------------------------------------------------------------

 
 
 KPOINTS: Automatic mesh                          

Automatic generation of k-mesh.
 Grid dimensions read from file:
 generate k-points for:   10   10    8

 Generating k-lattice:

  Cartesian coordinates                     Fractional coordinates (reciprocal lattice)
     0.040360420  0.023302099  0.000000000     0.100000000 -0.000000000  0.000000000
     0.000000000  0.046604199  0.000000000     0.000000000  0.100000000  0.000000000
     0.000000000  0.000000000  0.029120464     0.000000000  0.000000000  0.125000000

  Length of vectors
     0.046604199  0.046604199  0.029120464

  Shift w.r.t. Gamma in fractional coordinates (k-lattice)
     0.000000000  0.000000000  0.000000000

 
 Subroutine IBZKPT returns following result:
 ===========================================
 
 Found     70 irreducible k-points:
 
 Following reciprocal coordinates:
            Coordinates               Weight
  0.000000  0.000000  0.000000      1.000000
  0.100000 -0.000000  0.000000      6.000000
  0.200000 -0.000000  0.000000      6.000000
  0.300000 -0.000000  0.000000      6.000000
  0.400000 -0.000000  0.000000      6.000000
  0.500000 -0.000000  0.000000      3.000000
  0.100000  0.100000  0.000000      6.000000
  0.200000  0.100000  0.000000     12.000000
  0.300000  0.100000  0.000000     12.000000
  0.400000  0.100000  0.000000     12.000000
  0.200000  0.200000  0.000000      6.000000
  0.300000  0.200000  0.000000     12.000000
  0.400000  0.200000  0.000000      6.000000
  0.300000  0.300000  0.000000      6.000000
  0.000000  0.000000  0.125000      2.000000
  0.100000 -0.000000  0.125000     12.000000
  0.200000 -0.000000  0.125000     12.000000
  0.300000 -0.000000  0.125000     12.000000
  0.400000 -0.000000  0.125000     12.000000
  0.500000 -0.000000  0.125000      6.000000
  0.100000  0.100000  0.125000     12.000000
  0.200000  0.100000  0.125000     24.000000
  0.300000  0.100000  0.125000     24.000000
  0.400000  0.100000  0.125000     24.000000
  0.200000  0.200000  0.125000     12.000000
  0.300000  0.200000  0.125000     24.000000
  0.400000  0.200000  0.125000     12.000000
  0.300000  0.300000  0.125000     12.000000
  0.000000  0.000000  0.250000      2.000000
  0.100000 -0.000000  0.250000     12.000000
  0.200000 -0.000000  0.250000     12.000000
  0.300000 -0.000000  0.250000     12.000000
  0.400000 -0.000000  0.250000     12.000000
  0.500000 -0.000000  0.250000      6.000000
  0.100000  0.100000  0.250000     12.000000
  0.200000  0.100000  0.250000     24.000000
  0.300000  0.100000  0.250000     24.000000
  0.400000  0.100000  0.250000     24.000000
  0.200000  0.200000  0.250000     12.000000
  0.300000  0.200000  0.250000     24.000000
  0.400000  0.200000  0.250000     12.000000
  0.300000  0.300000  0.250000     12.000000
  0.000000  0.000000  0.375000      2.000000
  0.100000 -0.000000  0.375000     12.000000
  0.200000 -0.000000  0.375000     12.000000
  0.300000 -0.000000  0.375000     12.000000
  0.400000 -0.000000  0.375000     12.000000
  0.500000 -0.000000  0.375000      6.000000
  0.100000  0.100000  0.375000     12.000000
  0.200000  0.100000  0.375000     24.000000
  0.300000  0.100000  0.375000     24.000000
  0.400000  0.100000  0.375000     24.000000
  0.200000  0.200000  0.375000     12.000000
  0.300000  0.200000  0.375000     24.000000
  0.400000  0.200000  0.375000     12.000000
  0.300000  0.300000  0.375000     12.000000
  0.000000  0.000000  0.500000      1.000000
  0.100000 -0.000000  0.500000      6.000000
  0.200000 -0.000000  0.500000      6.000000
  0.300000 -0.000000  0.500000      6.000000
  0.400000 -0.000000  0.500000      6.000000
  0.500000 -0.000000  0.500000      3.000000
  0.100000  0.100000  0.500000      6.000000
  0.200000  0.100000  0.500000     12.000000
  0.300000  0.100000  0.500000     12.000000
  0.400000  0.100000  0.500000     12.000000
  0.200000  0.200000  0.500000      6.000000
  0.300000  0.200000  0.500000     12.000000
  0.400000  0.200000  0.500000      6.000000
  0.300000  0.300000  0.500000      6.000000
 
 Following cartesian coordinates:
            Coordinates               Weight
  0.000000  0.000000  0.000000      1.000000
  0.040360  0.023302  0.000000      6.000000
  0.080721  0.046604  0.000000      6.000000
  0.121081  0.069906  0.000000      6.000000
  0.161442  0.093208  0.000000      6.000000
  0.201802  0.116510  0.000000      3.000000
  0.040360  0.069906  0.000000      6.000000
  0.080721  0.093208  0.000000     12.000000
  0.121081  0.116510  0.000000     12.000000
  0.161442  0.139813  0.000000     12.000000
  0.080721  0.139813  0.000000      6.000000
  0.121081  0.163115  0.000000     12.000000
  0.161442  0.186417  0.000000      6.000000
  0.121081  0.209719  0.000000      6.000000
  0.000000  0.000000  0.029120      2.000000
  0.040360  0.023302  0.029120     12.000000
  0.080721  0.046604  0.029120     12.000000
  0.121081  0.069906  0.029120     12.000000
  0.161442  0.093208  0.029120     12.000000
  0.201802  0.116510  0.029120      6.000000
  0.040360  0.069906  0.029120     12.000000
  0.080721  0.093208  0.029120     24.000000
  0.121081  0.116510  0.029120     24.000000
  0.161442  0.139813  0.029120     24.000000
  0.080721  0.139813  0.029120     12.000000
  0.121081  0.163115  0.029120     24.000000
  0.161442  0.186417  0.029120     12.000000
  0.121081  0.209719  0.029120     12.000000
  0.000000  0.000000  0.058241      2.000000
  0.040360  0.023302  0.058241     12.000000
  0.080721  0.046604  0.058241     12.000000
  0.121081  0.069906  0.058241     12.000000
  0.161442  0.093208  0.058241     12.000000
  0.201802  0.116510  0.058241      6.000000
  0.040360  0.069906  0.058241     12.000000
  0.080721  0.093208  0.058241     24.000000
  0.121081  0.116510  0.058241     24.000000
  0.161442  0.139813  0.058241     24.000000
  0.080721  0.139813  0.058241     12.000000
  0.121081  0.163115  0.058241     24.000000
  0.161442  0.186417  0.058241     12.000000
  0.121081  0.209719  0.058241     12.000000
  0.000000  0.000000  0.087361      2.000000
  0.040360  0.023302  0.087361     12.000000
  0.080721  0.046604  0.087361     12.000000
  0.121081  0.069906  0.087361     12.000000
  0.161442  0.093208  0.087361     12.000000
  0.201802  0.116510  0.087361      6.000000
  0.040360  0.069906  0.087361     12.000000
  0.080721  0.093208  0.087361     24.000000
  0.121081  0.116510  0.087361     24.000000
  0.161442  0.139813  0.087361     24.000000
  0.080721  0.139813  0.087361     12.000000
  0.121081  0.163115  0.087361     24.000000
  0.161442  0.186417  0.087361     12.000000
  0.121081  0.209719  0.087361     12.000000
  0.000000  0.000000  0.116482      1.000000
  0.040360  0.023302  0.116482      6.000000
  0.080721  0.046604  0.116482      6.000000
  0.121081  0.069906  0.116482      6.000000
  0.161442  0.093208  0.116482      6.000000
  0.201802  0.116510  0.116482      3.000000
  0.040360  0.069906  0.116482      6.000000
  0.080721  0.093208  0.116482     12.000000
  0.121081  0.116510  0.116482     12.000000
  0.161442  0.139813  0.116482     12.000000
  0.080721  0.139813  0.116482      6.000000
  0.121081  0.163115  0.116482     12.000000
  0.161442  0.186417  0.116482      6.000000
  0.121081  0.209719  0.116482      6.000000
 


--------------------------------------------------------------------------------------------------------




 Dimension of arrays:
   k-points           NKPTS =     70   k-points in BZ     NKDIM =     70   number of bands    NBANDS=     24
   number of dos      NEDOS =    301   number of ions     NIONS =      2
   non local maximal  LDIM  =      6   non local SUM 2l+1 LMDIM =     18
   total plane-waves  NPLWV =   9720
   max r-space proj   IRMAX =      1   max aug-charges    IRDMAX=  14700
   dimension x,y,z NGX =    18 NGY =   18 NGZ =   30
   dimension x,y,z NGXF=    36 NGYF=   36 NGZF=   60
   support grid    NGXF=    36 NGYF=   36 NGZF=   60
   ions per type =               2
   NGX,Y,Z   is equivalent  to a cutoff of  12.08, 12.08, 11.62 a.u.
   NGXF,Y,Z  is equivalent  to a cutoff of  24.16, 24.16, 23.24 a.u.

 SYSTEM =  Pt-hcc                                  
 POSCAR =  Pt                                      

 Startparameter for this run:
   NWRITE =      2    write-flag & timer
   PREC   = accura    normal or accurate (medium, high low for compatibility)
   ISTART =      0    job   : 0-new  1-cont  2-samecut
   ICHARG =      2    charge: 1-file 2-atom 10-const
   ISPIN  =      1    spin polarized calculation?
   LNONCOLLINEAR =      F non collinear calculations
   LSORBIT =      F    spin-orbit coupling
   INIWAV =      1    electr: 0-lowe 1-rand  2-diag
   LASPH  =      F    aspherical Exc in radial PAW
 Electronic Relaxation 1
   ENCUT  =  450.0 eV  33.07 Ry    5.75 a.u.   4.29  4.29  7.42*2*pi/ulx,y,z
   ENINI  =  450.0     initial cutoff
   ENAUG  =  527.0 eV  augmentation charge cutoff
   NELM   =    100;   NELMIN=  2; NELMDL= -5     # of ELM steps 
   EDIFF  = 0.1E-05   stopping-criterion for ELM
   LREAL  =      F    real-space projection
   NLSPLINE    = F    spline interpolate recip. space projectors
   LCOMPAT=      F    compatible to vasp.4.4
   GGA_COMPAT  = T    GGA compatible to vasp.4.4-vasp.4.6
   LMAXPAW     = -100 max onsite density
   LMAXMIX     =    2 max onsite mixed and CHGCAR
   VOSKOWN=      0    Vosko Wilk Nusair interpolation
   ROPT   =    0.00000
 Ionic relaxation
   EDIFFG = -.2E-01   stopping-criterion for IOM
   NSW    =    100    number of steps for IOM
   NBLOCK =      1;   KBLOCK =    100    inner block; outer block 
   IBRION =      2    ionic relax: 0-MD 1-quasi-New 2-CG
   NFREE  =      1    steps in history (QN), initial steepest desc. (CG)
   ISIF   =      2    stress and relaxation
   IWAVPR =     11    prediction:  0-non 1-charg 2-wave 3-comb
   ISYM   =      1    0-nonsym 1-usesym 2-fastsym
   LCORR  =      T    Harris-Foulkes like correction to forces

   POTIM  = 0.5000    time-step for ionic-motion
   TEIN   =    0.0    initial temperature
   TEBEG  =    0.0;   TEEND  =   0.0 temperature during run
   SMASS  =  -3.00    Nose mass-parameter (am)
   estimated Nose-frequenzy (Omega)   =  0.10E-29 period in steps = 0.13E+47 mass=  -0.140E-27a.u.
   SCALEE = 1.0000    scale energy and forces
   NPACO  =    256;   APACO  = 10.0  distance and # of slots for P.C.
   PSTRESS=    0.0 pullay stress

  Mass of Ions in am
   POMASS = 195.08
  Ionic Valenz
   ZVAL   =  16.00
  Atomic Wigner-Seitz radii
   RWIGS  =  -1.00
  virtual crystal weights 
   VCA    =   1.00
   NELECT =      32.0000    total number of electrons
   NUPDOWN=      -1.0000    fix difference up-down

 DOS related values:
   EMIN   =  10.00;   EMAX   =-10.00  energy-range for DOS
   EFERMI =   0.00
   ISMEAR =     0;   SIGMA  =   0.05  broadening in eV -4-tet -1-fermi 0-gaus

 Electronic relaxation 2 (details)
   IALGO  =     38    algorithm
   LDIAG  =      T    sub-space diagonalisation (order eigenvalues)
   LSUBROT=      F    optimize rotation matrix (better conditioning)
   TURBO    =      0    0=normal 1=particle mesh
   IRESTART =      0    0=no restart 2=restart with 2 vectors
   NREBOOT  =      0    no. of reboots
   NMIN     =      0    reboot dimension
   EREF     =   0.00    reference energy to select bands
   IMIX   =      4    mixing-type and parameters
     AMIX     =   0.40;   BMIX     =  1.00
     AMIX_MAG =   1.60;   BMIX_MAG =  1.00
     AMIN     =   0.10
     WC   =   100.;   INIMIX=   1;  MIXPRE=   1;  MAXMIX= -45

 Intra band minimization:
   WEIMIN = 0.0010     energy-eigenvalue tresh-hold
   EBREAK =  0.10E-07  absolut break condition
   DEPER  =   0.30     relativ break condition  

   TIME   =   0.40     timestep for ELM

  volume/ion in A,a.u.               =      11.41        77.00
  Fermi-wavevector in a.u.,A,eV,Ry     =   1.832376  3.462688 45.682924  3.357600
  Thomas-Fermi vector in A             =   2.886431
 
 Write flags
   LWAVE        =      T    write WAVECAR
   LDOWNSAMPLE  =      F    k-point downsampling of WAVECAR
   LCHARG       =      T    write CHGCAR
   LVTOT        =      F    write LOCPOT, total local potential
   LVHAR        =      F    write LOCPOT, Hartree potential only
   LELF         =      F    write electronic localiz. function (ELF)
   LORBIT       =     11    0 simple, 1 ext, 2 COOP (PROOUT), +10 PAW based schemes


 Dipole corrections
   LMONO  =      F    monopole corrections only (constant potential shift)
   LDIPOL =      F    correct potential (dipole corrections)
   IDIPOL =      0    1-x, 2-y, 3-z, 4-all directions 
   EPSILON=  1.0000000 bulk dielectric constant

 Exchange correlation treatment:
   GGA     =    --    GGA type
   LEXCH   =     8    internal setting for exchange type
   LIBXC   =     F    Libxc                    
   VOSKOWN =     0    Vosko Wilk Nusair interpolation
   LHFCALC =     F    Hartree Fock is set to
   LHFONE  =     F    Hartree Fock one center treatment
   AEXX    =    0.0000 exact exchange contribution

 Linear response parameters
   LEPSILON=     F    determine dielectric tensor
   LRPA    =     F    only Hartree local field effects (RPA)
   LNABLA  =     F    use nabla operator in PAW spheres
   LVEL    =     F    velocity operator in full k-point grid
   CSHIFT  =0.1000    complex shift for real part using Kramers Kronig
   OMEGAMAX=  -1.0    maximum frequency
   DEG_THRESHOLD= 0.2000000E-02 threshold for treating states as degnerate
   RTIME   =   -0.100 relaxation time in fs
  (WPLASMAI=    0.000 imaginary part of plasma frequency in eV, 0.658/RTIME)
   DFIELD  = 0.0000000 0.0000000 0.0000000 field for delta impulse in time
 
  Optional k-point grid parameters
   LKPOINTS_OPT  =     F    use optional k-point grid
   KPOINTS_OPT_MODE=     1    mode for optional k-point grid
 
 Orbital magnetization related:
   ORBITALMAG=     F  switch on orbital magnetization
   LCHIMAG   =     F  perturbation theory with respect to B field
   DQ        =  0.001000  dq finite difference perturbation B field
   LLRAUG    =     F  two centre corrections for induced B field



--------------------------------------------------------------------------------------------------------


 conjugate gradient relaxation of ions
 charge density and potential will be updated during run
 non-spin polarized calculation
 Variant of blocked Davidson
 Davidson routine will perform the subspace rotation
 perform sub-space diagonalisation
    after iterative eigenvector-optimisation
 modified Broyden-mixing scheme, WC =      100.0
 initial mixing is a Kerker type mixing with AMIX =  0.4000 and BMIX =      1.0000
 Hartree-type preconditioning will be used
 using additional bands            8
 reciprocal scheme for non local part
 use partial core corrections
 calculate Harris-corrections to forces 
   (improved forces if not selfconsistent)
 use gradient corrections 
 use of overlap-Matrix (Vanderbilt PP)
 Gauss-broadening in eV      SIGMA  =   0.05


--------------------------------------------------------------------------------------------------------


  energy-cutoff  :      450.00
  volume of cell :       22.82
      direct lattice vectors                 reciprocal lattice vectors
     2.477674910  0.000000000  0.000000000     0.403604200  0.233020994  0.000000000
    -1.238837455  2.145729414  0.000000000     0.000000000  0.466041987  0.000000000
     0.000000000  0.000000000  4.292514039     0.000000000  0.000000000  0.232963711

  length of vectors
     2.477674910  2.477674910  4.292514039     0.466041987  0.466041987  0.232963711


 
 k-points in units of 2pi/SCALE and weight: Automatic mesh                          
   0.00000000  0.00000000  0.00000000       0.001
   0.04036042  0.02330210  0.00000000       0.007
   0.08072084  0.04660420  0.00000000       0.007
   0.12108126  0.06990630  0.00000000       0.007
   0.16144168  0.09320840  0.00000000       0.007
   0.20180210  0.11651050  0.00000000       0.004
   0.04036042  0.06990630  0.00000000       0.007
   0.08072084  0.09320840  0.00000000       0.015
   0.12108126  0.11651050  0.00000000       0.015
   0.16144168  0.13981260  0.00000000       0.015
   0.08072084  0.13981260  0.00000000       0.007
   0.12108126  0.16311470  0.00000000       0.015
   0.16144168  0.18641679  0.00000000       0.007
   0.12108126  0.20971889  0.00000000       0.007
   0.00000000  0.00000000  0.02912046       0.003
   0.04036042  0.02330210  0.02912046       0.015
   0.08072084  0.04660420  0.02912046       0.015
   0.12108126  0.06990630  0.02912046       0.015
   0.16144168  0.09320840  0.02912046       0.015
   0.20180210  0.11651050  0.02912046       0.007
   0.04036042  0.06990630  0.02912046       0.015
   0.08072084  0.09320840  0.02912046       0.030
   0.12108126  0.11651050  0.02912046       0.030
   0.16144168  0.13981260  0.02912046       0.030
   0.08072084  0.13981260  0.02912046       0.015
   0.12108126  0.16311470  0.02912046       0.030
   0.16144168  0.18641679  0.02912046       0.015
   0.12108126  0.20971889  0.02912046       0.015
   0.00000000  0.00000000  0.05824093       0.003
   0.04036042  0.02330210  0.05824093       0.015
   0.08072084  0.04660420  0.05824093       0.015
   0.12108126  0.06990630  0.05824093       0.015
   0.16144168  0.09320840  0.05824093       0.015
   0.20180210  0.11651050  0.05824093       0.007
   0.04036042  0.06990630  0.05824093       0.015
   0.08072084  0.09320840  0.05824093       0.030
   0.12108126  0.11651050  0.05824093       0.030
   0.16144168  0.13981260  0.05824093       0.030
   0.08072084  0.13981260  0.05824093       0.015
   0.12108126  0.16311470  0.05824093       0.030
   0.16144168  0.18641679  0.05824093       0.015
   0.12108126  0.20971889  0.05824093       0.015
   0.00000000  0.00000000  0.08736139       0.003
   0.04036042  0.02330210  0.08736139       0.015
   0.08072084  0.04660420  0.08736139       0.015
   0.12108126  0.06990630  0.08736139       0.015
   0.16144168  0.09320840  0.08736139       0.015
   0.20180210  0.11651050  0.08736139       0.007
   0.04036042  0.06990630  0.08736139       0.015
   0.08072084  0.09320840  0.08736139       0.030
   0.12108126  0.11651050  0.08736139       0.030
   0.16144168  0.13981260  0.08736139       0.030
   0.08072084  0.13981260  0.08736139       0.015
   0.12108126  0.16311470  0.08736139       0.030
   0.16144168  0.18641679  0.08736139       0.015
   0.12108126  0.20971889  0.08736139       0.015
   0.00000000  0.00000000  0.11648186       0.001
   0.04036042  0.02330210  0.11648186       0.007
   0.08072084  0.04660420  0.11648186       0.007
   0.12108126  0.06990630  0.11648186       0.007
   0.16144168  0.09320840  0.11648186       0.007
   0.20180210  0.11651050  0.11648186       0.004
   0.04036042  0.06990630  0.11648186       0.007
   0.08072084  0.09320840  0.11648186       0.015
   0.12108126  0.11651050  0.11648186       0.015
   0.16144168  0.13981260  0.11648186       0.015
   0.08072084  0.13981260  0.11648186       0.007
   0.12108126  0.16311470  0.11648186       0.015
   0.16144168  0.18641679  0.11648186       0.007
   0.12108126  0.20971889  0.11648186       0.007
 
 k-points in reciprocal lattice and weights: Automatic mesh                          
   0.00000000  0.00000000  0.00000000       0.001
   0.10000000 -0.00000000  0.00000000       0.007
   0.20000000 -0.00000000  0.00000000       0.007
   0.30000000 -0.00000000  0.00000000       0.007
   0.40000000 -0.00000000  0.00000000       0.007
   0.50000000 -0.00000000  0.00000000       0.004
   0.10000000  0.10000000  0.00000000       0.007
   0.20000000  0.10000000  0.00000000       0.015
   0.30000000  0.10000000  0.00000000       0.015
   0.40000000  0.10000000  0.00000000       0.015
   0.20000000  0.20000000  0.00000000       0.007
   0.30000000  0.20000000  0.00000000       0.015
   0.40000000  0.20000000  0.00000000       0.007
   0.30000000  0.30000000  0.00000000       0.007
   0.00000000  0.00000000  0.12500000       0.003
   0.10000000 -0.00000000  0.12500000       0.015
   0.20000000 -0.00000000  0.12500000       0.015
   0.30000000 -0.00000000  0.12500000       0.015
   0.40000000 -0.00000000  0.12500000       0.015
   0.50000000 -0.00000000  0.12500000       0.007
   0.10000000  0.10000000  0.12500000       0.015
   0.20000000  0.10000000  0.12500000       0.030
   0.30000000  0.10000000  0.12500000       0.030
   0.40000000  0.10000000  0.12500000       0.030
   0.20000000  0.20000000  0.12500000       0.015
   0.30000000  0.20000000  0.12500000       0.030
   0.40000000  0.20000000  0.12500000       0.015
   0.30000000  0.30000000  0.12500000       0.015
   0.00000000  0.00000000  0.25000000       0.003
   0.10000000 -0.00000000  0.25000000       0.015
   0.20000000 -0.00000000  0.25000000       0.015
   0.30000000 -0.00000000  0.25000000       0.015
   0.40000000 -0.00000000  0.25000000       0.015
   0.50000000 -0.00000000  0.25000000       0.007
   0.10000000  0.10000000  0.25000000       0.015
   0.20000000  0.10000000  0.25000000       0.030
   0.30000000  0.10000000  0.25000000       0.030
   0.40000000  0.10000000  0.25000000       0.030
   0.20000000  0.20000000  0.25000000       0.015
   0.30000000  0.20000000  0.25000000       0.030
   0.40000000  0.20000000  0.25000000       0.015
   0.30000000  0.30000000  0.25000000       0.015
   0.00000000  0.00000000  0.37500000       0.003
   0.10000000 -0.00000000  0.37500000       0.015
   0.20000000 -0.00000000  0.37500000       0.015
   0.30000000 -0.00000000  0.37500000       0.015
   0.40000000 -0.00000000  0.37500000       0.015
   0.50000000 -0.00000000  0.37500000       0.007
   0.10000000  0.10000000  0.37500000       0.015
   0.20000000  0.10000000  0.37500000       0.030
   0.30000000  0.10000000  0.37500000       0.030
   0.40000000  0.10000000  0.37500000       0.030
   0.20000000  0.20000000  0.37500000       0.015
   0.30000000  0.20000000  0.37500000       0.030
   0.40000000  0.20000000  0.37500000       0.015
   0.30000000  0.30000000  0.37500000       0.015
   0.00000000  0.00000000  0.50000000       0.001
   0.10000000 -0.00000000  0.50000000       0.007
   0.20000000 -0.00000000  0.50000000       0.007
   0.30000000 -0.00000000  0.50000000       0.007
   0.40000000 -0.00000000  0.50000000       0.007
   0.50000000 -0.00000000  0.50000000       0.004
   0.10000000  0.10000000  0.50000000       0.007
   0.20000000  0.10000000  0.50000000       0.015
   0.30000000  0.10000000  0.50000000       0.015
   0.40000000  0.10000000  0.50000000       0.015
   0.20000000  0.20000000  0.50000000       0.007
   0.30000000  0.20000000  0.50000000       0.015
   0.40000000  0.20000000  0.50000000       0.007
   0.30000000  0.30000000  0.50000000       0.007
 
 position of ions in fractional coordinates (direct lattice) 
   0.00000000  0.00000000  0.00000000
   0.33333333  0.66666667  0.50000000
 
 position of ions in cartesian coordinates  (Angst):
   0.00000000  0.00000000  0.00000000
   0.00000000  1.43048628  2.14625702
 


--------------------------------------------------------------------------------------------------------


 k-point   1 :   0.0000 0.0000 0.0000  plane waves:     513
 k-point   2 :   0.1000-0.0000 0.0000  plane waves:     521
 k-point   3 :   0.2000-0.0000 0.0000  plane waves:     501
 k-point   4 :   0.3000-0.0000 0.0000  plane waves:     492
 k-point   5 :   0.4000-0.0000 0.0000  plane waves:     486
 k-point   6 :   0.5000-0.0000 0.0000  plane waves:     496
 k-point   7 :   0.1000 0.1000 0.0000  plane waves:     505
 k-point   8 :   0.2000 0.1000 0.0000  plane waves:     493
 k-point   9 :   0.3000 0.1000 0.0000  plane waves:     493
 k-point  10 :   0.4000 0.1000 0.0000  plane waves:     491
 k-point  11 :   0.2000 0.2000 0.0000  plane waves:     498
 k-point  12 :   0.3000 0.2000 0.0000  plane waves:     494
 k-point  13 :   0.4000 0.2000 0.0000  plane waves:     496
 k-point  14 :   0.3000 0.3000 0.0000  plane waves:     498
 k-point  15 :   0.0000 0.0000 0.1250  plane waves:     513
 k-point  16 :   0.1000-0.0000 0.1250  plane waves:     510
 k-point  17 :   0.2000-0.0000 0.1250  plane waves:     495
 k-point  18 :   0.3000-0.0000 0.1250  plane waves:     490
 k-point  19 :   0.4000-0.0000 0.1250  plane waves:     494
 k-point  20 :   0.5000-0.0000 0.1250  plane waves:     496
 k-point  21 :   0.1000 0.1000 0.1250  plane waves:     499
 k-point  22 :   0.2000 0.1000 0.1250  plane waves:     492
 k-point  23 :   0.3000 0.1000 0.1250  plane waves:     493
 k-point  24 :   0.4000 0.1000 0.1250  plane waves:     494
 k-point  25 :   0.2000 0.2000 0.1250  plane waves:     498
 k-point  26 :   0.3000 0.2000 0.1250  plane waves:     498
 k-point  27 :   0.4000 0.2000 0.1250  plane waves:     497
 k-point  28 :   0.3000 0.3000 0.1250  plane waves:     492
 k-point  29 :   0.0000 0.0000 0.2500  plane waves:     507
 k-point  30 :   0.1000-0.0000 0.2500  plane waves:     495
 k-point  31 :   0.2000-0.0000 0.2500  plane waves:     495
 k-point  32 :   0.3000-0.0000 0.2500  plane waves:     491
 k-point  33 :   0.4000-0.0000 0.2500  plane waves:     493
 k-point  34 :   0.5000-0.0000 0.2500  plane waves:     500
 k-point  35 :   0.1000 0.1000 0.2500  plane waves:     497
 k-point  36 :   0.2000 0.1000 0.2500  plane waves:     490
 k-point  37 :   0.3000 0.1000 0.2500  plane waves:     493
 k-point  38 :   0.4000 0.1000 0.2500  plane waves:     496
 k-point  39 :   0.2000 0.2000 0.2500  plane waves:     495
 k-point  40 :   0.3000 0.2000 0.2500  plane waves:     494
 k-point  41 :   0.4000 0.2000 0.2500  plane waves:     500
 k-point  42 :   0.3000 0.3000 0.2500  plane waves:     492
 k-point  43 :   0.0000 0.0000 0.3750  plane waves:     501
 k-point  44 :   0.1000-0.0000 0.3750  plane waves:     496
 k-point  45 :   0.2000-0.0000 0.3750  plane waves:     494
 k-point  46 :   0.3000-0.0000 0.3750  plane waves:     490
 k-point  47 :   0.4000-0.0000 0.3750  plane waves:     495
 k-point  48 :   0.5000-0.0000 0.3750  plane waves:     492
 k-point  49 :   0.1000 0.1000 0.3750  plane waves:     493
 k-point  50 :   0.2000 0.1000 0.3750  plane waves:     494
 k-point  51 :   0.3000 0.1000 0.3750  plane waves:     493
 k-point  52 :   0.4000 0.1000 0.3750  plane waves:     495
 k-point  53 :   0.2000 0.2000 0.3750  plane waves:     491
 k-point  54 :   0.3000 0.2000 0.3750  plane waves:     493
 k-point  55 :   0.4000 0.2000 0.3750  plane waves:     495
 k-point  56 :   0.3000 0.3000 0.3750  plane waves:     491
 k-point  57 :   0.0000 0.0000 0.5000  plane waves:     506
 k-point  58 :   0.1000-0.0000 0.5000  plane waves:     496
 k-point  59 :   0.2000-0.0000 0.5000  plane waves:     492
 k-point  60 :   0.3000-0.0000 0.5000  plane waves:     498
 k-point  61 :   0.4000-0.0000 0.5000  plane waves:     492
 k-point  62 :   0.5000-0.0000 0.5000  plane waves:     476
 k-point  63 :   0.1000 0.1000 0.5000  plane waves:     488
 k-point  64 :   0.2000 0.1000 0.5000  plane waves:     490
 k-point  65 :   0.3000 0.1000 0.5000  plane waves:     492
 k-point  66 :   0.4000 0.1000 0.5000  plane waves:     496
 k-point  67 :   0.2000 0.2000 0.5000  plane waves:     480
 k-point  68 :   0.3000 0.2000 0.5000  plane waves:     496
 k-point  69 :   0.4000 0.2000 0.5000  plane waves:     498
 k-point  70 :   0.3000 0.3000 0.5000  plane waves:     494

 maximum and minimum number of plane-waves per node :       521      476

 maximum number of plane-waves:       521
 maximum index in each direction: 
   IXMAX=    4   IYMAX=    4   IZMAX=    7
   IXMIN=   -4   IYMIN=   -4   IZMIN=   -7


 serial   3D FFT for wavefunctions
 parallel 3D FFT for charge:
    minimum data exchange during FFTs selected (reduces bandwidth)


 total amount of memory used by VASP MPI-rank0    36803. kBytes
=======================================================================

   base      :      30000. kBytes
   nonl-proj :       5339. kBytes
   fftplans  :        183. kBytes
   grid      :        605. kBytes
   one-center:         31. kBytes
   wavefun   :        645. kBytes
 
     INWAV:  cpu time      0.0000: real time      0.0004
 Broyden mixing: mesh for mixing (old mesh)
   NGX =  9   NGY =  9   NGZ = 15
  (NGX  = 36   NGY  = 36   NGZ  = 60)
  gives a total of   1215 points

 initial charge density was supplied:
 charge density of overlapping atoms calculated
 number of electron      32.0000000 magnetization 
 keeping initial charge density in first step


--------------------------------------------------------------------------------------------------------


 Maximum index for augmentation-charges          938 (set IRDMAX)


--------------------------------------------------------------------------------------------------------


 First call to EWALD:  gamma=   0.625
 Maximum number of real-space cells 3x 3x 2
 Maximum number of reciprocal cells 2x 2x 4

    FEWALD:  cpu time      0.0015: real time      0.0015


--------------------------------------- Iteration      1(   1)  ---------------------------------------


    POTLOK:  cpu time      0.0041: real time      0.0053
    SETDIJ:  cpu time      0.0023: real time      0.0023
     EDDAV:  cpu time      0.2824: real time      0.2840
       DOS:  cpu time      0.0005: real time      0.0005
    --------------------------------------------
      LOOP:  cpu time      0.2893: real time      0.2921

 eigenvalue-minimisations  :  3360
 total energy-change (2. order) : 0.1347183E+03  (-0.2358513E+04)
 number of electron      32.0000000 magnetization 
 augmentation part       32.0000000 magnetization 

 Free energy of the ion-electron system (eV)
  ---------------------------------------------------
  alpha Z        PSCENC =       420.54928892
  Ewald energy   TEWEN  =     -4726.81013395
  -Hartree energ DENC   =      -612.28531841
  -exchange      EXHF   =         0.00000000
  -V(xc)+E(xc)   XCENC  =       131.29707291
  PAW double counting   =      4131.50523274    -4061.67189606
  entropy T*S    EENTRO =        -0.00102441
  eigenvalues    EBANDS =        -4.29455729
  atomic energy  EATOM  =      4856.42966544
  Solvation  Ediel_sol  =         0.00000000
  ---------------------------------------------------
  free energy    TOTEN  =       134.71832990 eV

  energy without entropy =      134.71935431  energy(sigma->0) =      134.71884210


--------------------------------------------------------------------------------------------------------




--------------------------------------- Iteration      1(   2)  ---------------------------------------


     EDDAV:  cpu time      0.2909: real time      0.2933
       DOS:  cpu time      0.0004: real time      0.0004
    --------------------------------------------
      LOOP:  cpu time      0.2913: real time      0.2936

 eigenvalue-minimisations  :  3432
 total energy-change (2. order) :-0.1427014E+03  (-0.1417233E+03)
 number of electron      32.0000000 magnetization 
 augmentation part       32.0000000 magnetization 

 Free energy of the ion-electron system (eV)
  ---------------------------------------------------
  alpha Z        PSCENC =       420.54928892
  Ewald energy   TEWEN  =     -4726.81013395
  -Hartree energ DENC   =      -612.28531841
  -exchange      EXHF   =         0.00000000
  -V(xc)+E(xc)   XCENC  =       131.29707291
  PAW double counting   =      4131.50523274    -4061.67189606
  entropy T*S    EENTRO =        -0.00195289
  eigenvalues    EBANDS =      -146.99503387
  atomic energy  EATOM  =      4856.42966544
  Solvation  Ediel_sol  =         0.00000000
  ---------------------------------------------------
  free energy    TOTEN  =        -7.98307517 eV

  energy without entropy =       -7.98112228  energy(sigma->0) =       -7.98209872


--------------------------------------------------------------------------------------------------------




--------------------------------------- Iteration      1(   3)  ---------------------------------------


     EDDAV:  cpu time      0.4983: real time      0.5010
       DOS:  cpu time      0.0004: real time      0.0004
    --------------------------------------------
      LOOP:  cpu time      0.4986: real time      0.5014

 eigenvalue-minimisations  :  4728
 total energy-change (2. order) :-0.9033264E+00  (-0.9027401E+00)
 number of electron      32.0000000 magnetization 
 augmentation part       32.0000000 magnetization 

 Free energy of the ion-electron system (eV)
  ---------------------------------------------------
  alpha Z        PSCENC =       420.54928892
  Ewald energy   TEWEN  =     -4726.81013395
  -Hartree energ DENC   =      -612.28531841
  -exchange      EXHF   =         0.00000000
  -V(xc)+E(xc)   XCENC  =       131.29707291
  PAW double counting   =      4131.50523274    -4061.67189606
  entropy T*S    EENTRO =        -0.00190103
  eigenvalues    EBANDS =      -147.89841209
  atomic energy  EATOM  =      4856.42966544
  Solvation  Ediel_sol  =         0.00000000
  ---------------------------------------------------
  free energy    TOTEN  =        -8.88640152 eV

  energy without entropy =       -8.88450049  energy(sigma->0) =       -8.88545101


--------------------------------------------------------------------------------------------------------




--------------------------------------- Iteration      1(   4)  ---------------------------------------


     EDDAV:  cpu time      0.4902: real time      0.4932
       DOS:  cpu time      0.0004: real time      0.0004
    --------------------------------------------
      LOOP:  cpu time      0.4905: real time      0.4935

 eigenvalue-minimisations  :  4608
 total energy-change (2. order) :-0.1762776E-02  (-0.1762755E-02)
 number of electron      32.0000000 magnetization 
 augmentation part       32.0000000 magnetization 

 Free energy of the ion-electron system (eV)
  ---------------------------------------------------
  alpha Z        PSCENC =       420.54928892
  Ewald energy   TEWEN  =     -4726.81013395
  -Hartree energ DENC   =      -612.28531841
  -exchange      EXHF   =         0.00000000
  -V(xc)+E(xc)   XCENC  =       131.29707291
  PAW double counting   =      4131.50523274    -4061.67189606
  entropy T*S    EENTRO =        -0.00189857
  eigenvalues    EBANDS =      -147.90017733
  atomic energy  EATOM  =      4856.42966544
  Solvation  Ediel_sol  =         0.00000000
  ---------------------------------------------------
  free energy    TOTEN  =        -8.88816430 eV

  energy without entropy =       -8.88626573  energy(sigma->0) =       -8.88721502


--------------------------------------------------------------------------------------------------------




--------------------------------------- Iteration      1(   5)  ---------------------------------------


     EDDAV:  cpu time      0.5805: real time      0.5835
       DOS:  cpu time      0.0004: real time      0.0004
    CHARGE:  cpu time      0.0157: real time      0.0157
    MIXING:  cpu time      0.0002: real time      0.0002
    --------------------------------------------
      LOOP:  cpu time      0.5967: real time      0.5998

 eigenvalue-minimisations  :  5064
 total energy-change (2. order) :-0.4143612E-06  (-0.4132258E-06)
 number of electron      31.9999975 magnetization 
 augmentation part        8.0688282 magnetization 

 Broyden mixing:
  rms(total) = 0.43690E+01    rms(broyden)= 0.43689E+01
  rms(prec ) = 0.44439E+01
  weight for this iteration     100.00

 Free energy of the ion-electron system (eV)
  ---------------------------------------------------
  alpha Z        PSCENC =       420.54928892
  Ewald energy   TEWEN  =     -4726.81013395
  -Hartree energ DENC   =      -612.28531841
  -exchange      EXHF   =         0.00000000
  -V(xc)+E(xc)   XCENC  =       131.29707291
  PAW double counting   =      4131.50523274    -4061.67189606
  entropy T*S    EENTRO =        -0.00189857
  eigenvalues    EBANDS =      -147.90017774
  atomic energy  EATOM  =      4856.42966544
  Solvation  Ediel_sol  =         0.00000000
  ---------------------------------------------------
  free energy    TOTEN  =        -8.88816471 eV

  energy without entropy =       -8.88626614  energy(sigma->0) =       -8.88721543


--------------------------------------------------------------------------------------------------------




--------------------------------------- Iteration      1(   6)  ---------------------------------------


    POTLOK:  cpu time      0.0030: real time      0.0032
    SETDIJ:  cpu time      0.0021: real time      0.0021
     EDDAV:  cpu time      0.2945: real time      0.2963
       DOS:  cpu time      0.0004: real time      0.0004
    CHARGE:  cpu time      0.0150: real time      0.0150
    MIXING:  cpu time      0.0002: real time      0.0002
    --------------------------------------------
      LOOP:  cpu time      0.3152: real time      0.3172

 eigenvalue-minimisations  :  3456
 total energy-change (2. order) : 0.4235754E+00  (-0.9787188E-01)
 number of electron      31.9999975 magnetization 
 augmentation part        8.2034372 magnetization 

 Broyden mixing:
  rms(total) = 0.20968E+01    rms(broyden)= 0.20968E+01
  rms(prec ) = 0.21157E+01
  weight for this iteration     100.00

 eigenvalues of (default mixing * dielectric matrix)
  average eigenvalue GAMMA=   1.9174
  1.9174

 Free energy of the ion-electron system (eV)
  ---------------------------------------------------
  alpha Z        PSCENC =       420.54928892
  Ewald energy   TEWEN  =     -4726.81013395
  -Hartree energ DENC   =      -591.52018939
  -exchange      EXHF   =         0.00000000
  -V(xc)+E(xc)   XCENC  =       130.37099483
  PAW double counting   =      5039.90900034    -4974.59326944
  entropy T*S    EENTRO =        -0.00238655
  eigenvalues    EBANDS =      -162.79755952
  atomic energy  EATOM  =      4856.42966544
  Solvation  Ediel_sol  =         0.00000000
  ---------------------------------------------------
  free energy    TOTEN  =        -8.46458932 eV

  energy without entropy =       -8.46220276  energy(sigma->0) =       -8.46339604


--------------------------------------------------------------------------------------------------------




--------------------------------------- Iteration      1(   7)  ---------------------------------------


    POTLOK:  cpu time      0.0028: real time      0.0030
    SETDIJ:  cpu time      0.0019: real time      0.0020
     EDDAV:  cpu time      0.3888: real time      0.3909
       DOS:  cpu time      0.0004: real time      0.0004
    CHARGE:  cpu time      0.0151: real time      0.0151
    MIXING:  cpu time      0.0003: real time      0.0003
    --------------------------------------------
      LOOP:  cpu time      0.4093: real time      0.4116

 eigenvalue-minimisations  :  4080
 total energy-change (2. order) : 0.6552601E-01  (-0.2970976E-01)
 number of electron      31.9999974 magnetization 
 augmentation part        8.2741601 magnetization 

 Broyden mixing:
  rms(total) = 0.27345E+00    rms(broyden)= 0.27344E+00
  rms(prec ) = 0.28292E+00
  weight for this iteration     100.00

 eigenvalues of (default mixing * dielectric matrix)
  average eigenvalue GAMMA=   2.0042
  1.3871  2.6214

 Free energy of the ion-electron system (eV)
  ---------------------------------------------------
  alpha Z        PSCENC =       420.54928892
  Ewald energy   TEWEN  =     -4726.81013395
  -Hartree energ DENC   =      -579.47179243
  -exchange      EXHF   =         0.00000000
  -V(xc)+E(xc)   XCENC  =       129.81981032
  PAW double counting   =      5997.52444252    -5935.54726451
  entropy T*S    EENTRO =        -0.00203990
  eigenvalues    EBANDS =      -170.89103974
  atomic energy  EATOM  =      4856.42966544
  Solvation  Ediel_sol  =         0.00000000
  ---------------------------------------------------
  free energy    TOTEN  =        -8.39906331 eV

  energy without entropy =       -8.39702341  energy(sigma->0) =       -8.39804336


--------------------------------------------------------------------------------------------------------




--------------------------------------- Iteration      1(   8)  ---------------------------------------


    POTLOK:  cpu time      0.0029: real time      0.0030
    SETDIJ:  cpu time      0.0020: real time      0.0020
     EDDAV:  cpu time      0.3361: real time      0.3382
       DOS:  cpu time      0.0003: real time      0.0003
    CHARGE:  cpu time      0.0158: real time      0.0158
    MIXING:  cpu time      0.0010: real time      0.0010
    --------------------------------------------
      LOOP:  cpu time      0.3581: real time      0.3603

 eigenvalue-minimisations  :  3720
 total energy-change (2. order) : 0.5136377E-02  (-0.2220960E-02)
 number of electron      31.9999974 magnetization 
 augmentation part        8.2536296 magnetization 

 Broyden mixing:
  rms(total) = 0.43508E-01    rms(broyden)= 0.43507E-01
  rms(prec ) = 0.43983E-01
  weight for this iteration     100.00

 eigenvalues of (default mixing * dielectric matrix)
  average eigenvalue GAMMA=   1.6774
  1.2624  1.3668  2.4030

 Free energy of the ion-electron system (eV)
  ---------------------------------------------------
  alpha Z        PSCENC =       420.54928892
  Ewald energy   TEWEN  =     -4726.81013395
  -Hartree energ DENC   =      -581.35623554
  -exchange      EXHF   =         0.00000000
  -V(xc)+E(xc)   XCENC  =       129.88854917
  PAW double counting   =      6236.94917575    -6175.13027624
  entropy T*S    EENTRO =        -0.00204758
  eigenvalues    EBANDS =      -168.91191292
  atomic energy  EATOM  =      4856.42966544
  Solvation  Ediel_sol  =         0.00000000
  ---------------------------------------------------
  free energy    TOTEN  =        -8.39392693 eV

  energy without entropy =       -8.39187936  energy(sigma->0) =       -8.39290315


--------------------------------------------------------------------------------------------------------




--------------------------------------- Iteration      1(   9)  ---------------------------------------


    POTLOK:  cpu time      0.0037: real time      0.0039
    SETDIJ:  cpu time      0.0024: real time      0.0024
     EDDAV:  cpu time      0.4179: real time      0.4203
       DOS:  cpu time      0.0004: real time      0.0004
    CHARGE:  cpu time      0.0148: real time      0.0149
    MIXING:  cpu time      0.0003: real time      0.0003
    --------------------------------------------
      LOOP:  cpu time      0.4394: real time      0.4421

 eigenvalue-minimisations  :  4152
 total energy-change (2. order) : 0.9199786E-04  (-0.9719609E-05)
 number of electron      31.9999974 magnetization 
 augmentation part        8.2542661 magnetization 

 Broyden mixing:
  rms(total) = 0.23256E-02    rms(broyden)= 0.23250E-02
  rms(prec ) = 0.31003E-02
  weight for this iteration     100.00

 eigenvalues of (default mixing * dielectric matrix)
  average eigenvalue GAMMA=   1.7386
  1.0115  1.3568  2.4900  2.0960

 Free energy of the ion-electron system (eV)
  ---------------------------------------------------
  alpha Z        PSCENC =       420.54928892
  Ewald energy   TEWEN  =     -4726.81013395
  -Hartree energ DENC   =      -581.41915043
  -exchange      EXHF   =         0.00000000
  -V(xc)+E(xc)   XCENC  =       129.89239956
  PAW double counting   =      6209.27523712    -6147.36152030
  entropy T*S    EENTRO =        -0.00204935
  eigenvalues    EBANDS =      -168.94757195
  atomic energy  EATOM  =      4856.42966544
  Solvation  Ediel_sol  =         0.00000000
  ---------------------------------------------------
  free energy    TOTEN  =        -8.39383494 eV

  energy without entropy =       -8.39178558  energy(sigma->0) =       -8.39281026


--------------------------------------------------------------------------------------------------------




--------------------------------------- Iteration      1(  10)  ---------------------------------------


    POTLOK:  cpu time      0.0028: real time      0.0030
    SETDIJ:  cpu time      0.0020: real time      0.0020
     EDDAV:  cpu time      0.5240: real time      0.5267
       DOS:  cpu time      0.0004: real time      0.0004
    CHARGE:  cpu time      0.0147: real time      0.0147
    MIXING:  cpu time      0.0003: real time      0.0003
    --------------------------------------------
      LOOP:  cpu time      0.5441: real time      0.5471

 eigenvalue-minimisations  :  4872
 total energy-change (2. order) : 0.3804389E-06  (-0.1228353E-05)
 number of electron      31.9999974 magnetization 
 augmentation part        8.2543880 magnetization 

 Broyden mixing:
  rms(total) = 0.47085E-03    rms(broyden)= 0.47046E-03
  rms(prec ) = 0.62721E-03
  weight for this iteration     100.00

 eigenvalues of (default mixing * dielectric matrix)
  average eigenvalue GAMMA=   1.7412
  2.5182  0.9859  1.9096  1.9096  1.3826

 Free energy of the ion-electron system (eV)
  ---------------------------------------------------
  alpha Z        PSCENC =       420.54928892
  Ewald energy   TEWEN  =     -4726.81013395
  -Hartree energ DENC   =      -581.45934437
  -exchange      EXHF   =         0.00000000
  -V(xc)+E(xc)   XCENC  =       129.89406572
  PAW double counting   =      6212.79924160    -6150.84487195
  entropy T*S    EENTRO =        -0.00205141
  eigenvalues    EBANDS =      -168.94969456
  atomic energy  EATOM  =      4856.42966544
  Solvation  Ediel_sol  =         0.00000000
  ---------------------------------------------------
  free energy    TOTEN  =        -8.39383456 eV

  energy without entropy =       -8.39178315  energy(sigma->0) =       -8.39280885


--------------------------------------------------------------------------------------------------------




--------------------------------------- Iteration      1(  11)  ---------------------------------------


    POTLOK:  cpu time      0.0027: real time      0.0029
    SETDIJ:  cpu time      0.0020: real time      0.0020
     EDDAV:  cpu time      0.2485: real time      0.2498
       DOS:  cpu time      0.0004: real time      0.0004
    --------------------------------------------
      LOOP:  cpu time      0.2535: real time      0.2551

 eigenvalue-minimisations  :  2592
 total energy-change (2. order) : 0.1844382E-06  (-0.2754305E-07)
 number of electron      31.9999974 magnetization 
 augmentation part        8.2543880 magnetization 

 Free energy of the ion-electron system (eV)
  ---------------------------------------------------
  alpha Z        PSCENC =       420.54928892
  Ewald energy   TEWEN  =     -4726.81013395
  -Hartree energ DENC   =      -581.46856496
  -exchange      EXHF   =         0.00000000
  -V(xc)+E(xc)   XCENC  =       129.89445022
  PAW double counting   =      6213.32223306    -6151.36025196
  entropy T*S    EENTRO =        -0.00205107
  eigenvalues    EBANDS =      -168.94847008
  atomic energy  EATOM  =      4856.42966544
  Solvation  Ediel_sol  =         0.00000000
  ---------------------------------------------------
  free energy    TOTEN  =        -8.39383437 eV

  energy without entropy =       -8.39178331  energy(sigma->0) =       -8.39280884


--------------------------------------------------------------------------------------------------------




 average (electrostatic) potential at core
  the test charge radii are     0.9952
  (the norm of the test charge is              1.0000)
       1 -83.3978       2 -83.3978
 
 
 
 E-fermi :  18.4060     XC(G=0): -15.8819     alpha+bet :-22.9903

 Fermi energy:        18.4059718838

 k-point     1 :       0.0000    0.0000    0.0000
  band No.  band energies     occupation 
      1     -36.1089      2.00000
      2     -35.1666      2.00000
      3     -35.1666      2.00000
      4     -35.0426      2.00000
      5     -35.0426      2.00000
      6     -34.9994      2.00000
      7       4.7377      2.00000
      8       7.4963      2.00000
      9      11.8095      2.00000
     10      12.6577      2.00000
     11      12.6577      2.00000
     12      13.3036      2.00000
     13      13.3036      2.00000
     14      15.3043      2.00000
     15      15.3043      2.00000
     16      16.2554      2.00000
     17      18.0146      2.00000
     18      18.0146      2.00000
     19      25.7177      0.00000
     20      32.3533      0.00000
     21      33.4382      0.00000
     22      35.2851      0.00000
     23      41.8918      0.00000
     24      41.8918      0.00000

 k-point     2 :       0.1000   -0.0000    0.0000
  band No.  band energies     occupation 
      1     -36.0694      2.00000
      2     -35.2869      2.00000
      3     -35.2009      2.00000
      4     -35.1636      2.00000
      5     -35.0645      2.00000
      6     -35.0077      2.00000
      7       5.2453      2.00000
      8       7.9697      2.00000
      9      11.6969      2.00000
     10      12.6511      2.00000
     11      13.0337      2.00000
     12      13.0977      2.00000
     13      13.7275      2.00000
     14      14.1914      2.00000
     15      14.9927      2.00000
     16      15.1430      2.00000
     17      18.1534      2.00000
     18      20.1717      0.00000
     19      25.6303      0.00000
     20      33.3686      0.00000
     21      34.1991      0.00000
     22      36.2544      0.00000
     23      39.0231      0.00000
     24      40.8790      0.00000

 k-point     3 :       0.2000   -0.0000    0.0000
  band No.  band energies     occupation 
      1     -35.9588      2.00000
      2     -35.5942      2.00000
      3     -35.4707      2.00000
      4     -35.2869      2.00000
      5     -35.1235      2.00000
      6     -35.0350      2.00000
      7       6.5588      2.00000
      8       8.9042      2.00000
      9      11.3694      2.00000
     10      12.0476      2.00000
     11      12.2111      2.00000
     12      13.6932      2.00000
     13      14.3236      2.00000
     14      14.3267      2.00000
     15      14.3608      2.00000
     16      14.9340      2.00000
     17      18.3714      1.67228
     18      23.1243      0.00000
     19      25.3405      0.00000
     20      34.7784      0.00000
     21      34.9113      0.00000
     22      37.5385      0.00000
     23      37.9125      0.00000
     24      38.4395      0.00000

 k-point     4 :       0.3000   -0.0000    0.0000
  band No.  band energies     occupation 
      1     -35.9687      2.00000
      2     -35.8344      2.00000
      3     -35.8035      2.00000
      4     -35.3889      2.00000
      5     -35.1976      2.00000
      6     -35.0877      2.00000
      7       7.8979      2.00000
      8       8.8069      2.00000
      9      10.3506      2.00000
     10      11.8776      2.00000
     11      12.4995      2.00000
     12      13.4966      2.00000
     13      13.6652      2.00000
     14      15.6242      2.00000
     15      16.2269      2.00000
     16      16.6886      2.00000
     17      18.4885      0.01956
     18      25.0917      0.00000
     19      25.9537      0.00000
     20      31.6070      0.00000
     21      33.2463      0.00000
     22      35.4502      0.00000
     23      38.7480      0.00000
     24      39.3169      0.00000

 k-point     5 :       0.4000   -0.0000    0.0000
  band No.  band energies     occupation 
      1     -36.2655      2.00000
      2     -36.1174      2.00000
      3     -35.6449      2.00000
      4     -35.4689      2.00000
      5     -35.2593      2.00000
      6     -35.1616      2.00000
      7       8.1045      2.00000
      8       8.4894      2.00000
      9       9.2772      2.00000
     10      12.7493      2.00000
     11      12.9126      2.00000
     12      13.2058      2.00000
     13      13.7529      2.00000
     14      18.1436      2.00000
     15      18.4904      0.01696
     16      18.5168      0.00171
     17      18.6140      0.00000
     18      25.4968      0.00000
     19      27.6423      0.00000
     20      28.1753      0.00000
     21      31.9673      0.00000
     22      32.7796      0.00000
     23      34.5824      0.00000
     24      38.2667      0.00000

 k-point     6 :       0.5000   -0.0000    0.0000
  band No.  band energies     occupation 
      1     -36.3778      2.00000
      2     -36.2234      2.00000
      3     -35.5657      2.00000
      4     -35.4992      2.00000
      5     -35.2830      2.00000
      6     -35.2095      2.00000
      7       7.9140      2.00000
      8       8.4479      2.00000
      9       8.9094      2.00000
     10      12.7048      2.00000
     11      13.0432      2.00000
     12      13.5343      2.00000
     13      14.0070      2.00000
     14      18.5165      0.00177
     15      19.0104      0.00000
     16      19.3803      0.00000
     17      21.5905      0.00000
     18      23.5331      0.00000
     19      27.7810      0.00000
     20      29.0805      0.00000
     21      31.1490      0.00000
     22      31.5091      0.00000
     23      31.5666      0.00000
     24      37.8631      0.00000

 k-point     7 :       0.1000    0.1000    0.0000
  band No.  band energies     occupation 
      1     -35.9943      2.00000
      2     -35.4770      2.00000
      3     -35.4018      2.00000
      4     -35.2414      2.00000
      5     -35.1227      2.00000
      6     -35.0252      2.00000
      7       6.1760      2.00000
      8       8.7739      2.00000
      9      11.2432      2.00000
     10      12.5452      2.00000
     11      12.6993      2.00000
     12      12.9980      2.00000
     13      13.9363      2.00000
     14      14.0461      2.00000
     15      14.6935      2.00000
     16      15.0879      2.00000
     17      18.2034      2.00000
     18      22.3805      0.00000
     19      25.4418      0.00000
     20      34.8381      0.00000
     21      35.4481      0.00000
     22      36.9620      0.00000
     23      37.4910      0.00000
     24      38.9156      0.00000

 k-point     8 :       0.2000    0.1000    0.0000
  band No.  band energies     occupation 
      1     -35.8603      2.00000
      2     -35.7931      2.00000
      3     -35.7119      2.00000
      4     -35.3615      2.00000
      5     -35.2137      2.00000
      6     -35.0660      2.00000
      7       7.6608      2.00000
      8       9.4451      2.00000
      9      11.0243      2.00000
     10      11.0560      2.00000
     11      12.1535      2.00000
     12      13.1062      2.00000
     13      14.0176      2.00000
     14      14.4721      2.00000
     15      15.7860      2.00000
     16      16.5339      2.00000
     17      18.2219      2.00000
     18      25.1635      0.00000
     19      25.2033      0.00000
     20      33.4874      0.00000
     21      34.6822      0.00000
     22      35.2075      0.00000
     23      37.5790      0.00000
     24      39.7596      0.00000

 k-point     9 :       0.3000    0.1000    0.0000
  band No.  band energies     occupation 
      1     -36.1180      2.00000
      2     -35.9953      2.00000
      3     -35.7001      2.00000
      4     -35.4850      2.00000
      5     -35.3002      2.00000
      6     -35.1330      2.00000
      7       8.6459      2.00000
      8       8.9482      2.00000
      9       9.7468      2.00000
     10      11.9798      2.00000
     11      12.6482      2.00000
     12      12.9165      2.00000
     13      13.6501      2.00000
     14      15.8597      2.00000
     15      17.6268      2.00000
     16      18.2086      2.00000
     17      18.9028      0.00000
     18      25.5537      0.00000
     19      27.7885      0.00000
     20      29.3360      0.00000
     21      32.4703      0.00000
     22      33.1498      0.00000
     23      37.2771      0.00000
     24      38.2266      0.00000

 k-point    10 :       0.4000    0.1000    0.0000
  band No.  band energies     occupation 
      1     -36.3156      2.00000
      2     -36.1658      2.00000
      3     -35.5675      2.00000
      4     -35.5599      2.00000
      5     -35.3529      2.00000
      6     -35.2075      2.00000
      7       8.4074      2.00000
      8       8.8787      2.00000
      9       9.0700      2.00000
     10      12.5970      2.00000
     11      12.9745      2.00000
     12      13.1955      2.00000
     13      13.6848      2.00000
     14      17.9679      2.00000
     15      18.1798      2.00000
     16      18.6420      0.00000
     17      21.3953      0.00000
     18      25.2164      0.00000
     19      27.4423      0.00000
     20      29.5590      0.00000
     21      30.0277      0.00000
     22      32.3305      0.00000
     23      33.3291      0.00000
     24      37.6362      0.00000

 k-point    11 :       0.2000    0.2000    0.0000
  band No.  band energies     occupation 
      1     -35.9805      2.00000
      2     -35.9649      2.00000
      3     -35.7201      2.00000
      4     -35.5037      2.00000
      5     -35.3728      2.00000
      6     -35.1231      2.00000
      7       9.1436      2.00000
      8      10.0746      2.00000
      9      10.3192      2.00000
     10      10.3405      2.00000
     11      12.3028      2.00000
     12      12.5625      2.00000
     13      13.9749      2.00000
     14      14.5870      2.00000
     15      17.5893      2.00000
     16      17.8867      2.00000
     17      19.0274      0.00000
     18      25.6722      0.00000
     19      27.8084      0.00000
     20      30.7120      0.00000
     21      31.3349      0.00000
     22      34.5193      0.00000
     23      37.5500      0.00000
     24      38.4637      0.00000

 k-point    12 :       0.3000    0.2000    0.0000
  band No.  band energies     occupation 
      1     -36.1712      2.00000
      2     -36.0674      2.00000
      3     -35.6681      2.00000
      4     -35.5706      2.00000
      5     -35.5073      2.00000
      6     -35.2047      2.00000
      7       9.3917      2.00000
      8       9.6649      2.00000
      9       9.8927      2.00000
     10      11.7134      2.00000
     11      12.0973      2.00000
     12      13.1641      2.00000
     13      13.4097      2.00000
     14      15.9227      2.00000
     15      17.6370      2.00000
     16      18.3560      1.84269
     17      21.5858      0.00000
     18      26.5908      0.00000
     19      27.6887      0.00000
     20      28.7593      0.00000
     21      30.3487      0.00000
     22      34.0831      0.00000
     23      35.3584      0.00000
     24      37.1180      0.00000

 k-point    13 :       0.4000    0.2000    0.0000
  band No.  band energies     occupation 
      1     -36.2417      2.00000
      2     -36.0922      2.00000
      3     -35.7475      2.00000
      4     -35.5574      2.00000
      5     -35.4861      2.00000
      6     -35.2635      2.00000
      7       9.1432      2.00000
      8       9.4918      2.00000
      9       9.8951      2.00000
     10      12.3253      2.00000
     11      12.5601      2.00000
     12      12.5763      2.00000
     13      13.8215      2.00000
     14      17.2247      2.00000
     15      17.5459      2.00000
     16      18.0461      2.00000
     17      23.3051      0.00000
     18      24.3040      0.00000
     19      27.1460      0.00000
     20      29.9854      0.00000
     21      31.6172      0.00000
     22      33.4088      0.00000
     23      33.8686      0.00000
     24      36.5453      0.00000

 k-point    14 :       0.3000    0.3000    0.0000
  band No.  band energies     occupation 
      1     -36.1274      2.00000
      2     -36.0140      2.00000
      3     -35.8687      2.00000
      4     -35.7258      2.00000
      5     -35.4398      2.00000
      6     -35.3003      2.00000
      7       9.2477      2.00000
      8      10.4623      2.00000
      9      10.7940      2.00000
     10      11.5148      2.00000
     11      12.0466      2.00000
     12      12.5074      2.00000
     13      13.9885      2.00000
     14      16.5244      2.00000
     15      17.2427      2.00000
     16      17.7521      2.00000
     17      23.4782      0.00000
     18      24.5435      0.00000
     19      25.9771      0.00000
     20      31.4660      0.00000
     21      32.9772      0.00000
     22      34.5118      0.00000
     23      34.9443      0.00000
     24      35.6224      0.00000

 k-point    15 :       0.0000    0.0000    0.1250
  band No.  band energies     occupation 
      1     -36.0687      2.00000
      2     -35.1618      2.00000
      3     -35.1618      2.00000
      4     -35.0474      2.00000
      5     -35.0474      2.00000
      6     -35.0439      2.00000
      7       4.9283      2.00000
      8       7.5130      2.00000
      9      11.7509      2.00000
     10      12.6252      2.00000
     11      12.6252      2.00000
     12      13.2344      2.00000
     13      13.2344      2.00000
     14      15.4756      2.00000
     15      15.4756      2.00000
     16      15.5820      2.00000
     17      17.9818      2.00000
     18      17.9818      2.00000
     19      26.6113      0.00000
     20      31.8528      0.00000
     21      34.2873      0.00000
     22      34.8639      0.00000
     23      40.6719      0.00000
     24      40.6719      0.00000

 k-point    16 :       0.1000   -0.0000    0.1250
  band No.  band energies     occupation 
      1     -36.0320      2.00000
      2     -35.2802      2.00000
      3     -35.1958      2.00000
      4     -35.1777      2.00000
      5     -35.0697      2.00000
      6     -35.0394      2.00000
      7       5.4302      2.00000
      8       7.9947      2.00000
      9      11.7023      2.00000
     10      12.4958      2.00000
     11      12.8475      2.00000
     12      13.0496      2.00000
     13      13.6505      2.00000
     14      14.1541      2.00000
     15      15.1959      2.00000
     16      15.2125      2.00000
     17      18.0968      2.00000
     18      19.6517      0.00000
     19      26.6187      0.00000
     20      32.8349      0.00000
     21      35.0514      0.00000
     22      35.7523      0.00000
     23      38.8083      0.00000
     24      40.4159      0.00000

 k-point    17 :       0.2000   -0.0000    0.1250
  band No.  band energies     occupation 
      1     -35.9365      2.00000
      2     -35.5793      2.00000
      3     -35.4844      2.00000
      4     -35.2805      2.00000
      5     -35.1296      2.00000
      6     -35.0600      2.00000
      7       6.7075      2.00000
      8       8.9560      2.00000
      9      11.4140      2.00000
     10      11.7306      2.00000
     11      12.1517      2.00000
     12      13.5005      2.00000
     13      14.0617      2.00000
     14      14.6678      2.00000
     15      14.7119      2.00000
     16      14.9744      2.00000
     17      18.2681      1.99990
     18      21.9365      0.00000
     19      26.7153      0.00000
     20      34.6658      0.00000
     21      34.9797      0.00000
     22      37.1621      0.00000
     23      38.4431      0.00000
     24      38.5356      0.00000

 k-point    18 :       0.3000   -0.0000    0.1250
  band No.  band energies     occupation 
      1     -35.9951      2.00000
      2     -35.8571      2.00000
      3     -35.7375      2.00000
      4     -35.3817      2.00000
      5     -35.2052      2.00000
      6     -35.1044      2.00000
      7       7.9019      2.00000
      8       8.8696      2.00000
      9      10.4113      2.00000
     10      11.5136      2.00000
     11      12.5435      2.00000
     12      13.7643      2.00000
     13      13.7691      2.00000
     14      15.6918      2.00000
     15      16.2637      2.00000
     16      16.5969      2.00000
     17      18.3617      1.78937
     18      23.5181      0.00000
     19      27.2948      0.00000
     20      31.9924      0.00000
     21      33.5928      0.00000
     22      35.7979      0.00000
     23      38.0488      0.00000
     24      39.4737      0.00000

 k-point    19 :       0.4000   -0.0000    0.1250
  band No.  band energies     occupation 
      1     -36.2745      2.00000
      2     -36.1348      2.00000
      3     -35.6110      2.00000
      4     -35.4612      2.00000
      5     -35.2674      2.00000
      6     -35.1691      2.00000
      7       8.0639      2.00000
      8       8.3171      2.00000
      9       9.6419      2.00000
     10      11.6279      2.00000
     11      13.3454      2.00000
     12      13.3910      2.00000
     13      14.5649      2.00000
     14      18.0122      2.00000
     15      18.1697      2.00000
     16      18.4766      0.04585
     17      18.6906      0.00000
     18      24.4207      0.00000
     19      27.4618      0.00000
     20      29.3083      0.00000
     21      32.2820      0.00000
     22      33.2150      0.00000
     23      34.5380      0.00000
     24      38.2034      0.00000

 k-point    20 :       0.5000   -0.0000    0.1250
  band No.  band energies     occupation 
      1     -36.3846      2.00000
      2     -36.2398      2.00000
      3     -35.5389      2.00000
      4     -35.4913      2.00000
      5     -35.2914      2.00000
      6     -35.2111      2.00000
      7       7.9715      2.00000
      8       8.0541      2.00000
      9       9.3927      2.00000
     10      11.6963      2.00000
     11      13.1905      2.00000
     12      13.6296      2.00000
     13      15.1932      2.00000
     14      18.1724      2.00000
     15      19.0448      0.00000
     16      19.3682      0.00000
     17      21.1418      0.00000
     18      23.3149      0.00000
     19      27.7363      0.00000
     20      28.7008      0.00000
     21      31.7554      0.00000
     22      31.8363      0.00000
     23      32.0350      0.00000
     24      37.9816      0.00000

 k-point    21 :       0.1000    0.1000    0.1250
  band No.  band energies     occupation 
      1     -35.9651      2.00000
      2     -35.4662      2.00000
      3     -35.4111      2.00000
      4     -35.2418      2.00000
      5     -35.1282      2.00000
      6     -35.0516      2.00000
      7       6.3424      2.00000
      8       8.8179      2.00000
      9      11.2964      2.00000
     10      12.0607      2.00000
     11      12.5968      2.00000
     12      13.0049      2.00000
     13      13.9275      2.00000
     14      14.2496      2.00000
     15      14.7837      2.00000
     16      15.2236      2.00000
     17      18.1203      2.00000
     18      21.4173      0.00000
     19      26.6778      0.00000
     20      34.3937      0.00000
     21      36.0517      0.00000
     22      36.4641      0.00000
     23      37.4108      0.00000
     24      39.4269      0.00000

 k-point    22 :       0.2000    0.1000    0.1250
  band No.  band energies     occupation 
      1     -35.8898      2.00000
      2     -35.7501      2.00000
      3     -35.7036      2.00000
      4     -35.3594      2.00000
      5     -35.2203      2.00000
      6     -35.0841      2.00000
      7       7.7514      2.00000
      8       9.5183      2.00000
      9      10.7969      2.00000
     10      11.1766      2.00000
     11      12.0299      2.00000
     12      13.0584      2.00000
     13      14.2034      2.00000
     14      14.4536      2.00000
     15      15.9752      2.00000
     16      16.4360      2.00000
     17      18.1330      2.00000
     18      23.2211      0.00000
     19      27.1456      0.00000
     20      33.6553      0.00000
     21      34.7997      0.00000
     22      35.5457      0.00000
     23      37.4056      0.00000
     24      40.1998      0.00000

 k-point    23 :       0.3000    0.1000    0.1250
  band No.  band energies     occupation 
      1     -36.1301      2.00000
      2     -36.0132      2.00000
      3     -35.6598      2.00000
      4     -35.4784      2.00000
      5     -35.3087      2.00000
      6     -35.1408      2.00000
      7       8.5072      2.00000
      8       8.9865      2.00000
      9       9.9951      2.00000
     10      11.3771      2.00000
     11      12.8139      2.00000
     12      13.3508      2.00000
     13      13.7078      2.00000
     14      15.8703      2.00000
     15      17.7172      2.00000
     16      17.8334      2.00000
     17      19.0350      0.00000
     18      24.5154      0.00000
     19      27.9427      0.00000
     20      30.3274      0.00000
     21      32.7533      0.00000
     22      33.4501      0.00000
     23      36.9041      0.00000
     24      38.4399      0.00000

 k-point    24 :       0.4000    0.1000    0.1250
  band No.  band energies     occupation 
      1     -36.3224      2.00000
      2     -36.1827      2.00000
      3     -35.5758      2.00000
      4     -35.5175      2.00000
      5     -35.3644      2.00000
      6     -35.2055      2.00000
      7       8.3801      2.00000
      8       8.4976      2.00000
      9       9.6641      2.00000
     10      11.6168      2.00000
     11      12.7742      2.00000
     12      13.8181      2.00000
[...]
      1     -35.9974      2.00000
      2     -35.9974      2.00000
      3     -35.3507      2.00000
      4     -35.3507      2.00000
      5     -35.2943      2.00000
      6     -35.2943      2.00000
      7       8.5609      2.00000
      8       8.5609      2.00000
      9      10.3848      2.00000
     10      10.3848      2.00000
     11      13.6187      2.00000
     12      13.6187      2.00000
     13      15.0987      2.00000
     14      15.0987      2.00000
     15      17.1807      2.00000
     16      17.1807      2.00000
     17      18.0840      2.00000
     18      18.0840      2.00000
     19      31.8014      0.00000
     20      31.8014      0.00000
     21      35.6746      0.00000
     22      35.6746      0.00000
     23      39.9348      0.00000
     24      39.9348      0.00000

 k-point    61 :       0.4000   -0.0000    0.5000
  band No.  band energies     occupation 
      1     -36.2706      2.00000
      2     -36.2706      2.00000
      3     -35.3649      2.00000
      4     -35.3649      2.00000
      5     -35.3202      2.00000
      6     -35.3202      2.00000
      7       8.1036      2.00000
      8       8.1036      2.00000
      9       9.9238      2.00000
     10       9.9238      2.00000
     11      15.2670      2.00000
     12      15.2670      2.00000
     13      15.8199      2.00000
     14      15.8199      2.00000
     15      18.4850      0.02539
     16      18.4850      0.02539
     17      19.0797      0.00000
     18      19.0797      0.00000
     19      29.5331      0.00000
     20      29.5331      0.00000
     21      34.3855      0.00000
     22      34.3855      0.00000
     23      37.7833      0.00000
     24      37.7833      0.00000

 k-point    62 :       0.5000   -0.0000    0.5000
  band No.  band energies     occupation 
      1     -36.3747      2.00000
      2     -36.3747      2.00000
      3     -35.3912      2.00000
      4     -35.3912      2.00000
      5     -35.3059      2.00000
      6     -35.3059      2.00000
      7       7.9039      2.00000
      8       7.9039      2.00000
      9       9.7379      2.00000
     10       9.7379      2.00000
     11      15.2369      2.00000
     12      15.2369      2.00000
     13      16.6184      2.00000
     14      16.6184      2.00000
     15      19.2199      0.00000
     16      19.2199      0.00000
     17      20.2628      0.00000
     18      20.2628      0.00000
     19      27.7308      0.00000
     20      27.7308      0.00000
     21      33.9207      0.00000
     22      33.9207      0.00000
     23      36.6072      0.00000
     24      36.6072      0.00000

 k-point    63 :       0.1000    0.1000    0.5000
  band No.  band energies     occupation 
      1     -35.6325      2.00000
      2     -35.6325      2.00000
      3     -35.3179      2.00000
      4     -35.3179      2.00000
      5     -35.1888      2.00000
      6     -35.1888      2.00000
      7       8.2995      2.00000
      8       8.2995      2.00000
      9      10.9774      2.00000
     10      10.9774      2.00000
     11      12.1724      2.00000
     12      12.1724      2.00000
     13      13.8610      2.00000
     14      13.8610      2.00000
     15      16.8061      2.00000
     16      16.8061      2.00000
     17      17.5071      2.00000
     18      17.5071      2.00000
     19      32.8237      0.00000
     20      32.8237      0.00000
     21      35.9524      0.00000
     22      35.9524      0.00000
     23      37.9437      0.00000
     24      37.9437      0.00000

 k-point    64 :       0.2000    0.1000    0.5000
  band No.  band energies     occupation 
      1     -35.8577      2.00000
      2     -35.8577      2.00000
      3     -35.3768      2.00000
      4     -35.3768      2.00000
      5     -35.2720      2.00000
      6     -35.2720      2.00000
      7       8.9881      2.00000
      8       8.9881      2.00000
      9      10.7098      2.00000
     10      10.7098      2.00000
     11      12.1195      2.00000
     12      12.1195      2.00000
     13      14.8252      2.00000
     14      14.8252      2.00000
     15      17.1320      2.00000
     16      17.1320      2.00000
     17      18.0035      2.00000
     18      18.0035      2.00000
     19      32.6908      0.00000
     20      32.6908      0.00000
     21      36.2384      0.00000
     22      36.2384      0.00000
     23      37.7113      0.00000
     24      37.7113      0.00000

 k-point    65 :       0.3000    0.1000    0.5000
  band No.  band energies     occupation 
      1     -36.1378      2.00000
      2     -36.1378      2.00000
      3     -35.4314      2.00000
      4     -35.4314      2.00000
      5     -35.2943      2.00000
      6     -35.2943      2.00000
      7       8.6507      2.00000
      8       8.6507      2.00000
      9      10.3361      2.00000
     10      10.3361      2.00000
     11      13.7290      2.00000
     12      13.7290      2.00000
     13      15.0012      2.00000
     14      15.0012      2.00000
     15      18.2032      2.00000
     16      18.2032      2.00000
     17      19.2677      0.00000
     18      19.2677      0.00000
     19      31.0248      0.00000
     20      31.0248      0.00000
     21      35.0932      0.00000
     22      35.0932      0.00000
     23      36.7065      0.00000
     24      36.7065      0.00000

 k-point    66 :       0.4000    0.1000    0.5000
  band No.  band energies     occupation 
      1     -36.3150      2.00000
      2     -36.3150      2.00000
      3     -35.4853      2.00000
      4     -35.4853      2.00000
      5     -35.2795      2.00000
      6     -35.2795      2.00000
      7       8.3117      2.00000
      8       8.3117      2.00000
      9      10.0154      2.00000
     10      10.0154      2.00000
     11      14.2812      2.00000
     12      14.2812      2.00000
     13      16.2031      2.00000
     14      16.2031      2.00000
     15      18.3600      1.80665
     16      18.3600      1.80665
     17      21.5021      0.00000
     18      21.5021      0.00000
     19      28.3546      0.00000
     20      28.3546      0.00000
     21      34.4953      0.00000
     22      34.4953      0.00000
     23      35.2921      0.00000
     24      35.2921      0.00000

 k-point    67 :       0.2000    0.2000    0.5000
  band No.  band energies     occupation 
      1     -36.0494      2.00000
      2     -36.0494      2.00000
      3     -35.4938      2.00000
      4     -35.4938      2.00000
      5     -35.2859      2.00000
      6     -35.2859      2.00000
      7       9.2051      2.00000
      8       9.2051      2.00000
      9      11.1037      2.00000
     10      11.1037      2.00000
     11      11.9691      2.00000
     12      11.9691      2.00000
     13      14.5199      2.00000
     14      14.5199      2.00000
     15      18.4057      1.00624
     16      18.4057      1.00624
     17      19.4474      0.00000
     18      19.4474      0.00000
     19      32.1665      0.00000
     20      32.1665      0.00000
     21      34.8953      0.00000
     22      34.8953      0.00000
     23      36.0491      0.00000
     24      36.0491      0.00000

 k-point    68 :       0.3000    0.2000    0.5000
  band No.  band energies     occupation 
      1     -36.1877      2.00000
      2     -36.1877      2.00000
      3     -35.6386      2.00000
      4     -35.6386      2.00000
      5     -35.2631      2.00000
      6     -35.2631      2.00000
      7       9.1374      2.00000
      8       9.1374      2.00000
      9      10.8137      2.00000
     10      10.8137      2.00000
     11      12.8569      2.00000
     12      12.8569      2.00000
     13      14.5106      2.00000
     14      14.5106      2.00000
     15      18.5066      0.00441
     16      18.5066      0.00441
     17      22.4128      0.00000
     18      22.4128      0.00000
     19      29.6394      0.00000
     20      29.6394      0.00000
     21      33.3087      0.00000
     22      33.3087      0.00000
     23      35.7622      0.00000
     24      35.7622      0.00000

 k-point    69 :       0.4000    0.2000    0.5000
  band No.  band energies     occupation 
      1     -36.2356      2.00000
      2     -36.2356      2.00000
      3     -35.6997      2.00000
      4     -35.6997      2.00000
      5     -35.2524      2.00000
      6     -35.2524      2.00000
      7       9.1048      2.00000
      8       9.1048      2.00000
      9      10.6513      2.00000
     10      10.6513      2.00000
     11      12.8838      2.00000
     12      12.8838      2.00000
     13      15.2839      2.00000
     14      15.2839      2.00000
     15      18.2522      1.99999
     16      18.2522      1.99999
     17      24.3321      0.00000
     18      24.3321      0.00000
     19      27.7643      0.00000
     20      27.7643      0.00000
     21      32.4635      0.00000
     22      32.4635      0.00000
     23      36.1470      0.00000
     24      36.1470      0.00000

 k-point    70 :       0.3000    0.3000    0.5000
  band No.  band energies     occupation 
      1     -36.1253      2.00000
      2     -36.1253      2.00000
      3     -35.8615      2.00000
      4     -35.8615      2.00000
      5     -35.2435      2.00000
      6     -35.2435      2.00000
      7       9.7217      2.00000
      8       9.7217      2.00000
      9      11.0348      2.00000
     10      11.0348      2.00000
     11      12.4077      2.00000
     12      12.4077      2.00000
     13      14.3237      2.00000
     14      14.3237      2.00000
     15      18.2189      2.00000
     16      18.2189      2.00000
     17      25.5893      0.00000
     18      25.5893      0.00000
     19      28.0842      0.00000
     20      28.0842      0.00000
     21      30.7633      0.00000
     22      30.7633      0.00000
     23      37.8130      0.00000
     24      37.8130      0.00000


--------------------------------------------------------------------------------------------------------


 soft charge-density along one line, spin component           1
         0         1         2         3         4         5         6         7         8         9
 total charge-density along one line
 
 pseudopotential strength for first ion, spin component:           1
-29.519  -0.000   0.000   8.557   0.000  -0.000   0.000  -0.000
 -0.000 -29.446  -0.000   0.000   8.483   0.000  -0.000   0.000
  0.000  -0.000 -29.519  -0.000   0.000   8.557   0.001  -0.000
  8.557   0.000  -0.000  17.144  -0.000   0.000  -0.000   0.000
  0.000   8.483   0.000  -0.000  17.168  -0.000   0.000  -0.000
 -0.000   0.000   8.557   0.000  -0.000  17.144  -0.001   0.000
  0.000  -0.000   0.001  -0.000   0.000  -0.001  -2.298  -0.000
 -0.000   0.000  -0.000   0.000  -0.000   0.000  -0.000  -2.249
  0.000  -0.000  -0.000  -0.000   0.000   0.000  -0.000  -0.000
 -0.000  -0.000  -0.000   0.000   0.000   0.000  -0.000   0.000
  0.001  -0.000   0.000  -0.001   0.000  -0.000  -0.000   0.000
  0.000  -0.000   0.001  -0.000   0.000  -0.001  -2.356  -0.000
 -0.000   0.000  -0.000   0.000  -0.000   0.000  -0.000  -2.301
  0.000  -0.000  -0.000  -0.000   0.000   0.000  -0.000  -0.000
 -0.000  -0.000  -0.000   0.000   0.000   0.000  -0.000   0.000
  0.001  -0.000   0.000  -0.001   0.000  -0.000  -0.000   0.000
  0.000   0.000  -0.000   0.000   0.000  -0.000  -0.000   0.000
 -0.000  -0.000   0.000  -0.000  -0.000   0.000   0.000  -0.000
 total augmentation occupancy for first ion, spin component:           1
  2.005   0.000   0.000  -0.023   0.000   0.000   0.000   0.000  -0.000   0.000   0.005   0.000   0.000   0.000   0.000  -0.005
 -0.000   2.004  -0.000  -0.000  -0.021   0.000   0.000  -0.000   0.000   0.000   0.000  -0.000   0.000   0.000   0.000   0.000
  0.000   0.000   2.005   0.000   0.000  -0.023   0.005   0.000   0.000  -0.000  -0.000  -0.005  -0.000   0.000   0.000   0.000
 -0.023   0.000   0.000   0.094  -0.000   0.000  -0.000   0.000   0.000   0.000  -0.050  -0.000   0.000  -0.000  -0.000   0.047
  0.000  -0.021  -0.000   0.000   0.080  -0.000   0.000   0.000   0.000   0.000   0.000   0.000   0.000   0.000   0.000   0.000
  0.000   0.000  -0.023   0.000   0.000   0.094  -0.050   0.000   0.000   0.000   0.000   0.047   0.000   0.000  -0.000   0.000
  0.000   0.000   0.005  -0.000   0.000  -0.050  11.113   0.000   0.000   0.000   0.000  -7.626   0.000   0.000   0.000   0.000
  0.000   0.000   0.000   0.000  -0.000   0.000  -0.000   9.826  -0.000   0.000  -0.000  -0.000  -6.962  -0.000  -0.000   0.000
 -0.000   0.000   0.000   0.000   0.000   0.000   0.000   0.000  11.213   0.000  -0.000   0.000   0.000  -7.741  -0.000   0.000
  0.000   0.000   0.000   0.000   0.000   0.000   0.000   0.000   0.000   9.826   0.000   0.000   0.000   0.000  -6.962   0.000
  0.005  -0.000  -0.000  -0.050  -0.000   0.000   0.000   0.000  -0.000  -0.000  11.113   0.000  -0.000   0.000   0.000  -7.626
 -0.000   0.000  -0.005   0.000   0.000   0.047  -7.626   0.000   0.000   0.000   0.000   6.063   0.000   0.000   0.000   0.000
  0.000   0.000   0.000   0.000   0.000   0.000   0.000  -6.962  -0.000  -0.000   0.000   0.000   6.077  -0.000   0.000   0.000
  0.000   0.000   0.000  -0.000   0.000   0.000   0.000  -0.000  -7.741   0.000   0.000   0.000  -0.000   6.185   0.000  -0.000
  0.000   0.000  -0.000  -0.000   0.000   0.000   0.000   0.000   0.000  -6.962   0.000   0.000   0.000   0.000   6.077   0.000
 -0.005   0.000   0.000   0.047   0.000  -0.000   0.000   0.000   0.000   0.000  -7.626   0.000   0.000  -0.000   0.000   6.063
 -0.000   0.000   0.000   0.000   0.000   0.000   0.000   0.000  -0.340   0.000  -0.000   0.000   0.000   0.311   0.000   0.000
  0.000   0.000   0.000   0.000   0.000   0.000   0.000  -0.000   0.004   0.000   0.000   0.000  -0.000   0.002   0.000   0.000


------------------------ aborting loop because EDIFF is reached ----------------------------------------





 total charge

# of ion       s       p       d       tot
------------------------------------------
    1        0.439   6.189   7.254  13.882
    2        0.439   6.189   7.254  13.882
--------------------------------------------------
tot          0.878  12.379  14.507  27.764
 
    CHARGE:  cpu time      0.0146: real time      0.0147
    FORLOC:  cpu time      0.0001: real time      0.0001
    FORNL :  cpu time      0.0122: real time      0.0123
    STRESS:  cpu time      0.1342: real time      0.1347
    FORCOR:  cpu time      0.0024: real time      0.0024
    FORHAR:  cpu time      0.0005: real time      0.0005
    MIXING:  cpu time      0.0002: real time      0.0002
    OFIELD:  cpu time      0.0000: real time      0.0000

  FORCE on cell =-STRESS in cart. coord.  units (eV):
  Direction    XX          YY          ZZ          XY          YZ          ZX
  --------------------------------------------------------------------------------------
  Alpha Z   420.54929   420.54929   420.54929
  Ewald   -1533.22668 -1533.22668 -1660.35898     0.00000     0.00000     0.00000
  Hartree   209.02552   209.02552   163.41859    -0.00000    -0.00000    -0.00000
  E(xc)    -174.48425  -174.48426  -174.70810    -0.00000    -0.00000    -0.00000
  Local     294.91995   294.91994   451.46950    -0.00001    -0.00000    -0.00000
  n-local   -41.40743   -45.29885   -46.17044   -16.79569     4.41593     3.58682
  augment   144.73475   144.73475   148.78212     0.00000    -0.00000    -0.00000
  Kinetic   711.68679   706.35979   720.89291   -23.24121     4.87078     1.08611
  Fock        0.00000     0.00000     0.00000     0.00000     0.00000     0.00000
  -------------------------------------------------------------------------------------
  Total      27.18871    27.18871    23.87489    -0.00000    -0.00000    -0.00000
  in kB    1908.83416  1908.83416  1676.18090    -0.00000    -0.00000    -0.00000
  external pressure =     1831.28 kB  Pullay stress =        0.00 kB


 VOLUME and BASIS-vectors are now :
 -----------------------------------------------------------------------------
  energy-cutoff  :      450.00
  volume of cell :       22.82
      direct lattice vectors                 reciprocal lattice vectors
     2.477674910  0.000000000  0.000000000     0.403604200  0.233020994  0.000000000
    -1.238837455  2.145729414  0.000000000     0.000000000  0.466041987  0.000000000
     0.000000000  0.000000000  4.292514039     0.000000000  0.000000000  0.232963711

  length of vectors
     2.477674910  2.477674910  4.292514039     0.466041987  0.466041987  0.232963711


 FORCES acting on ions
    electron-ion (+dipol)            ewald-force                    non-local-force                 convergence-correction
 -----------------------------------------------------------------------------------------------
   0.101E-07 -.583E-08 0.174E-12   0.223E-11 -.134E-11 -.845E-13   -.659E-16 0.694E-17 0.000E+00   0.387E-08 -.223E-08 -.358E-12
   -.101E-07 0.585E-08 -.160E-11   -.224E-11 0.133E-11 0.845E-13   0.694E-16 -.694E-17 0.000E+00   -.387E-08 0.223E-08 0.738E-13
 -----------------------------------------------------------------------------------------------
   -.315E-10 0.182E-10 -.143E-11   -.751E-14 -.731E-14 0.000E+00   0.347E-17 0.000E+00 0.000E+00   0.117E-12 0.884E-13 -.284E-12
 
 
 POSITION                                       TOTAL-FORCE (eV/Angst)
 -----------------------------------------------------------------------------------
      0.00000      0.00000      0.00000        -0.000000      0.000000      0.000000
      0.00000      1.43049      2.14626         0.000000      0.000000      0.000000
 -----------------------------------------------------------------------------------
    total drift:                               -0.000000      0.000000     -0.000000


--------------------------------------------------------------------------------------------------------



  FREE ENERGIE OF THE ION-ELECTRON SYSTEM (eV)
  ---------------------------------------------------
  free  energy   TOTEN  =        -8.39383437 eV

  energy  without entropy=       -8.39178331  energy(sigma->0) =       -8.39280884
 


--------------------------------------------------------------------------------------------------------


    POTLOK:  cpu time      0.0050: real time      0.0050


--------------------------------------------------------------------------------------------------------




--------------------------------------------------------------------------------------------------------


  
 reached required accuracy - stopping structural energy minimisation
 writing wavefunctions
     LOOP+:  cpu time      4.7584: real time      4.9030
    4ORBIT:  cpu time      0.0000: real time      0.0000



 total charge

# of ion       s       p       d       tot
------------------------------------------
    1        0.439   6.189   7.254  13.882
    2        0.439   6.189   7.254  13.882
--------------------------------------------------
tot          0.878  12.379  14.507  27.764
 

 total amount of memory used by VASP MPI-rank0    36803. kBytes
=======================================================================

   base      :      30000. kBytes
   nonl-proj :       5339. kBytes
   fftplans  :        183. kBytes
   grid      :        605. kBytes
   one-center:         31. kBytes
   wavefun   :        645. kBytes
 
  
  
 General timing and accounting informations for this job:
 ========================================================
  
                  Total CPU time used (sec):        5.646
                            User time (sec):        5.131
                          System time (sec):        0.515
                         Elapsed time (sec):        8.627
  
                   Maximum memory used (kb):      226844.
                   Average memory used (kb):          N/A
  
                          Minor page faults:        23478
                          Major page faults:           78
                 Voluntary context switches:         2258
