PROCAR lm decomposed
# of k-points:   70         # of bands:   24         # of ions:    2

 k-point     1 :    0.00000000 0.00000000 0.00000000     weight = 0.00125000

band     1 # energy  -36.10886248 # occ.  2.00000000
 
ion      s     py     pz     px    dxy    dyz    dz2    dxz  x2-y2    tot
    1  0.000  0.000  0.486  0.000  0.000  0.000  0.000  0.000  0.000  0.486
    2  0.000  0.000  0.486  0.000  0.000  0.000  0.000  0.000  0.000  0.486
tot    0.000  0.000  0.971  0.000  0.000  0.000  0.000  0.000  0.000  0.971
 
band     2 # energy  -35.16655944 # occ.  2.00000000
 
ion      s     py     pz     px    dxy    dyz    dz2    dxz  x2-y2    tot
    1  0.000  0.125  0.000  0.375  0.000  0.000  0.000  0.000  0.000  0.500
    2  0.000  0.125  0.000  0.375  0.000  0.000  0.000  0.000  0.000  0.500
tot    0.000  0.250  0.000  0.750  0.000  0.000  0.000  0.000  0.000  1.000
 
band     3 # energy  -35.16655880 # occ.  2.00000000
 
ion      s     py     pz     px    dxy    dyz    dz2    dxz  x2-y2    tot
    1  0.000  0.375  0.000  0.125  0.000  0.000  0.000  0.000  0.000  0.500
    2  0.000  0.375  0.000  0.125  0.000  0.000  0.000  0.000  0.000  0.500
tot    0.000  0.750  0.000  0.250  0.000  0.000  0.000  0.000  0.000  1.000
 
band     4 # energy  -35.04256672 # occ.  2.00000000
 
ion      s     py     pz     px    dxy    dyz    dz2    dxz  x2-y2    tot
    1  0.000  0.125  0.000  0.376  0.000  0.000  0.000  0.000  0.000  0.501
    2  0.000  0.125  0.000  0.376  0.000  0.000  0.000  0.000  0.000  0.501
tot    0.000  0.251  0.000  0.752  0.000  0.000  0.000  0.000  0.000  1.002
 
band     5 # energy  -35.04256607 # occ.  2.00000000
 
ion      s     py     pz     px    dxy    dyz    dz2    dxz  x2-y2    tot
    1  0.000  0.376  0.000  0.125  0.000  0.000  0.000  0.000  0.000  0.501
    2  0.000  0.376  0.000  0.125  0.000  0.000  0.000  0.000  0.000  0.501
tot    0.000  0.752  0.000  0.251  0.000  0.000  0.000  0.000  0.000  1.002
 
band     6 # energy  -34.99937824 # occ.  2.00000000
 
ion      s     py     pz     px    dxy    dyz    dz2    dxz  x2-y2    tot
    1  0.000  0.000  0.500  0.000  0.000  0.000  0.000  0.000  0.000  0.500
    2  0.000  0.000  0.500  0.000  0.000  0.000  0.000  0.000  0.000  0.500
tot    0.000  0.000  1.000  0.000  0.000  0.000  0.000  0.000  0.000  1.000
 
band     7 # energy    4.73770206 # occ.  2.00000000
 
ion      s     py     pz     px    dxy    dyz    dz2    dxz  x2-y2    tot
    1  0.270  0.000  0.000  0.000  0.000  0.000  0.000  0.000  0.000  0.270
    2  0.270  0.000  0.000  0.000  0.000  0.000  0.000  0.000  0.000  0.270
tot    0.540  0.000  0.000  0.000  0.000  0.000  0.001  0.000  0.000  0.540
 
band     8 # energy    7.49628125 # occ.  2.00000000
 
ion      s     py     pz     px    dxy    dyz    dz2    dxz  x2-y2    tot
    1  0.106  0.000  0.000  0.000  0.000  0.000  0.267  0.000  0.000  0.373
    2  0.106  0.000  0.000  0.000  0.000  0.000  0.267  0.000  0.000  0.373
tot    0.211  0.000  0.000  0.000  0.000  0.000  0.534  0.000  0.000  0.745
 
band     9 # energy   11.80948431 # occ.  2.00000000
 
ion      s     py     pz     px    dxy    dyz    dz2    dxz  x2-y2    tot
    1  0.000  0.000  0.000  0.000  0.000  0.000  0.439  0.000  0.000  0.439
    2  0.000  0.000  0.000  0.000  0.000  0.000  0.439  0.000  0.000  0.439
tot    0.000  0.000  0.000  0.000  0.000  0.000  0.877  0.000  0.000  0.877
 
band    10 # energy   12.65767734 # occ.  2.00000000
 
ion      s     py     pz     px    dxy    dyz    dz2    dxz  x2-y2    tot
    1  0.000  0.000  0.000  0.000  0.111  0.000  0.000  0.000  0.332  0.443
    2  0.000  0.000  0.000  0.000  0.111  0.000  0.000  0.000  0.332  0.443
tot    0.000  0.000  0.000  0.000  0.222  0.000  0.000  0.000  0.665  0.887
 
band    11 # energy   12.65767805 # occ.  2.00000000
 
ion      s     py     pz     px    dxy    dyz    dz2    dxz  x2-y2    tot
    1  0.000  0.000  0.000  0.000  0.332  0.000  0.000  0.000  0.111  0.443
    2  0.000  0.000  0.000  0.000  0.332  0.000  0.000  0.000  0.111  0.443
tot    0.000  0.000  0.000  0.000  0.665  0.000  0.000  0.000  0.222  0.887
 
band    12 # energy   13.30357174 # occ.  2.00000000
 
ion      s     py     pz     px    dxy    dyz    dz2    dxz  x2-y2    tot
    1  0.000  0.000  0.000  0.000  0.113  0.000  0.000  0.000  0.340  0.454
    2  0.000  0.000  0.000  0.000  0.113  0.000  0.000  0.000  0.340  0.454
tot    0.000  0.001  0.000  0.000  0.227  0.000  0.000  0.000  0.680  0.908
 
band    13 # energy   13.30357246 # occ.  2.00000000
 
ion      s     py     pz     px    dxy    dyz    dz2    dxz  x2-y2    tot
    1  0.000  0.000  0.000  0.000  0.340  0.000  0.000  0.000  0.113  0.454
    2  0.000  0.000  0.000  0.000  0.340  0.000  0.000  0.000  0.113  0.454
tot    0.000  0.000  0.000  0.001  0.680  0.000  0.000  0.000  0.227  0.908
 
band    14 # energy   15.30430604 # occ.  2.00000000
 
ion      s     py     pz     px    dxy    dyz    dz2    dxz  x2-y2    tot
    1  0.000  0.000  0.000  0.000  0.000  0.115  0.000  0.344  0.000  0.458
    2  0.000  0.000  0.000  0.000  0.000  0.115  0.000  0.344  0.000  0.458
tot    0.000  0.000  0.000  0.000  0.000  0.229  0.000  0.687  0.000  0.917
 
band    15 # energy   15.30430642 # occ.  2.00000000
 
ion      s     py     pz     px    dxy    dyz    dz2    dxz  x2-y2    tot
    1  0.000  0.000  0.000  0.000  0.000  0.344  0.000  0.115  0.000  0.458
    2  0.000  0.000  0.000  0.000  0.000  0.344  0.000  0.115  0.000  0.458
tot    0.000  0.000  0.000  0.000  0.000  0.687  0.000  0.229  0.000  0.917
 
band    16 # energy   16.25541369 # occ.  2.00000000
 
ion      s     py     pz     px    dxy    dyz    dz2    dxz  x2-y2    tot
    1  0.000  0.000  0.134  0.000  0.000  0.000  0.000  0.000  0.000  0.134
    2  0.000  0.000  0.134  0.000  0.000  0.000  0.000  0.000  0.000  0.134
tot    0.000  0.000  0.267  0.000  0.000  0.000  0.000  0.000  0.000  0.267
 
band    17 # energy   18.01460261 # occ.  2.00000000
 
ion      s     py     pz     px    dxy    dyz    dz2    dxz  x2-y2    tot
    1  0.000  0.000  0.000  0.000  0.000  0.118  0.000  0.353  0.000  0.471
    2  0.000  0.000  0.000  0.000  0.000  0.118  0.000  0.353  0.000  0.471
tot    0.000  0.000  0.000  0.000  0.000  0.236  0.000  0.707  0.000  0.943
 
band    18 # energy   18.01460305 # occ.  2.00000000
 
ion      s     py     pz     px    dxy    dyz    dz2    dxz  x2-y2    tot
    1  0.000  0.000  0.000  0.000  0.000  0.353  0.000  0.118  0.000  0.471
    2  0.000  0.000  0.000  0.000  0.000  0.353  0.000  0.118  0.000  0.471
tot    0.000  0.000  0.000  0.000  0.000  0.707  0.000  0.236  0.000  0.943
 
band    19 # energy   25.71767423 # occ.  0.00000000
 
ion      s     py     pz     px    dxy    dyz    dz2    dxz  x2-y2    tot
    1  0.218  0.000  0.000  0.000  0.000  0.000  0.216  0.000  0.000  0.434
    2  0.218  0.000  0.000  0.000  0.000  0.000  0.216  0.000  0.000  0.434
tot    0.437  0.000  0.000  0.000  0.000  0.000  0.432  0.000  0.000  0.868
 
band    20 # energy   32.35327239 # occ.  0.00000000
 
ion      s     py     pz     px    dxy    dyz    dz2    dxz  x2-y2    tot
    1  0.003  0.000  0.000  0.000  0.000  0.000  0.002  0.000  0.000  0.006
    2  0.003  0.000  0.000  0.000  0.000  0.000  0.002  0.000  0.000  0.006
tot    0.007  0.000  0.000  0.000  0.000  0.000  0.005  0.000  0.000  0.012
 
band    21 # energy   33.43821272 # occ.  0.00000000
 
ion      s     py     pz     px    dxy    dyz    dz2    dxz  x2-y2    tot
    1  0.000  0.000  0.016  0.000  0.000  0.000  0.000  0.000  0.000  0.016
    2  0.000  0.000  0.016  0.000  0.000  0.000  0.000  0.000  0.000  0.016
tot    0.000  0.000  0.031  0.000  0.000  0.000  0.000  0.000  0.000  0.031
 
band    22 # energy   35.28508093 # occ.  0.00000000
 
ion      s     py     pz     px    dxy    dyz    dz2    dxz  x2-y2    tot
    1  0.001  0.000  0.000  0.000  0.000  0.000  0.029  0.000  0.000  0.030
    2  0.001  0.000  0.000  0.000  0.000  0.000  0.029  0.000  0.000  0.030
tot    0.002  0.000  0.000  0.000  0.000  0.000  0.059  0.000  0.000  0.061
 
band    23 # energy   41.89179702 # occ.  0.00000000
 
ion      s     py     pz     px    dxy    dyz    dz2    dxz  x2-y2    tot
    1  0.000  0.000  0.000  0.000  0.000  0.009  0.000  0.027  0.000  0.036
    2  0.000  0.000  0.000  0.000  0.000  0.009  0.000  0.027  0.000  0.036
tot    0.000  0.000  0.000  0.000  0.000  0.018  0.000  0.054  0.000  0.072
 
band    24 # energy   41.89179721 # occ.  0.00000000
 
ion      s     py     pz     px    dxy    dyz    dz2    dxz  x2-y2    tot
    1  0.000  0.000  0.000  0.000  0.000  0.027  0.000  0.009  0.000  0.036
    2  0.000  0.000  0.000  0.000  0.000  0.027  0.000  0.009  0.000  0.036
tot    0.000  0.000  0.000  0.000  0.000  0.054  0.000  0.018  0.000  0.072
 

 k-point     2 :    0.10000000-0.00000000 0.00000000     weight = 0.00750000

band     1 # energy  -36.06937429 # occ.  2.00000000
 
ion      s     py     pz     px    dxy    dyz    dz2    dxz  x2-y2    tot
    1  0.000  0.000  0.486  0.000  0.000  0.000  0.000  0.000  0.000  0.486
    2  0.000  0.000  0.486  0.000  0.000  0.000  0.000  0.000  0.000  0.486
tot    0.000  0.000  0.972  0.000  0.000  0.000  0.000  0.000  0.000  0.973
 
band     2 # energy  -35.28690302 # occ.  2.00000000
 
ion      s     py     pz     px    dxy    dyz    dz2    dxz  x2-y2    tot
    1  0.000  0.125  0.000  0.374  0.000  0.000  0.000  0.000  0.000  0.499
    2  0.000  0.125  0.000  0.374  0.000  0.000  0.000  0.000  0.000  0.499
tot    0.000  0.249  0.000  0.748  0.000  0.000  0.000  0.000  0.000  0.998
 
band     3 # energy  -35.20092543 # occ.  2.00000000
 
ion      s     py     pz     px    dxy    dyz    dz2    dxz  x2-y2    tot
    1  0.000  0.375  0.000  0.125  0.000  0.000  0.000  0.000  0.000  0.500
    2  0.000  0.375  0.000  0.125  0.000  0.000  0.000  0.000  0.000  0.500
tot    0.000  0.749  0.000  0.250  0.000  0.000  0.000  0.000  0.000  0.999
 
band     4 # energy  -35.16355844 # occ.  2.00000000
 
ion      s     py     pz     px    dxy    dyz    dz2    dxz  x2-y2    tot
    1  0.000  0.125  0.000  0.375  0.000  0.000  0.000  0.000  0.000  0.500
    2  0.000  0.125  0.000  0.375  0.000  0.000  0.000  0.000  0.000  0.500
tot    0.000  0.250  0.000  0.750  0.000  0.000  0.000  0.000  0.000  1.000
 
band     5 # energy  -35.06454814 # occ.  2.00000000
 
ion      s     py     pz     px    dxy    dyz    dz2    dxz  x2-y2    tot
    1  0.000  0.376  0.000  0.125  0.000  0.000  0.000  0.000  0.000  0.501
    2  0.000  0.376  0.000  0.125  0.000  0.000  0.000  0.000  0.000  0.501
tot    0.000  0.752  0.000  0.251  0.000  0.000  0.000  0.000  0.000  1.002
 
band     6 # energy  -35.00774406 # occ.  2.00000000
 
ion      s     py     pz     px    dxy    dyz    dz2    dxz  x2-y2    tot
    1  0.000  0.000  0.500  0.000  0.000  0.000  0.000  0.000  0.000  0.500
    2  0.000  0.000  0.500  0.000  0.000  0.000  0.000  0.000  0.000  0.500
tot    0.000  0.000  1.000  0.000  0.000  0.000  0.000  0.000  0.000  1.000
 
band     7 # energy    5.24532089 # occ.  2.00000000
 
ion      s     py     pz     px    dxy    dyz    dz2    dxz  x2-y2    tot
    1  0.262  0.001  0.000  0.003  0.000  0.000  0.000  0.000  0.000  0.267
    2  0.262  0.001  0.000  0.003  0.000  0.000  0.000  0.000  0.000  0.267
tot    0.525  0.002  0.000  0.007  0.001  0.000  0.000  0.000  0.000  0.535
 
band     8 # energy    7.96968900 # occ.  2.00000000
 
ion      s     py     pz     px    dxy    dyz    dz2    dxz  x2-y2    tot
    1  0.096  0.001  0.000  0.003  0.003  0.000  0.268  0.000  0.001  0.371
    2  0.096  0.001  0.000  0.003  0.003  0.000  0.268  0.000  0.001  0.371
tot    0.192  0.002  0.000  0.006  0.005  0.000  0.536  0.000  0.002  0.743
 
band     9 # energy   11.69685878 # occ.  2.00000000
 
ion      s     py     pz     px    dxy    dyz    dz2    dxz  x2-y2    tot
    1  0.000  0.000  0.000  0.001  0.122  0.000  0.269  0.000  0.041  0.432
    2  0.000  0.000  0.000  0.001  0.122  0.000  0.269  0.000  0.041  0.432
tot    0.000  0.001  0.000  0.002  0.243  0.000  0.537  0.000  0.081  0.864
 
band    10 # energy   12.65113254 # occ.  2.00000000
 
ion      s     py     pz     px    dxy    dyz    dz2    dxz  x2-y2    tot
    1  0.000  0.000  0.000  0.001  0.217  0.000  0.150  0.000  0.072  0.440
    2  0.000  0.000  0.000  0.001  0.217  0.000  0.150  0.000  0.072  0.440
tot    0.000  0.000  0.000  0.001  0.434  0.000  0.300  0.000  0.145  0.880
 
band    11 # energy   13.03373202 # occ.  2.00000000
 
ion      s     py     pz     px    dxy    dyz    dz2    dxz  x2-y2    tot
    1  0.003  0.000  0.000  0.001  0.315  0.000  0.022  0.000  0.105  0.445
    2  0.003  0.000  0.000  0.001  0.315  0.000  0.022  0.000  0.105  0.445
tot    0.006  0.000  0.000  0.001  0.629  0.000  0.043  0.000  0.210  0.890
 
band    12 # energy   13.09771667 # occ.  2.00000000
 
ion      s     py     pz     px    dxy    dyz    dz2    dxz  x2-y2    tot
    1  0.000  0.001  0.000  0.000  0.110  0.000  0.000  0.000  0.331  0.443
    2  0.000  0.001  0.000  0.000  0.110  0.000  0.000  0.000  0.331  0.443
tot    0.000  0.002  0.000  0.001  0.221  0.000  0.000  0.000  0.663  0.886
 
band    13 # energy   13.72753217 # occ.  2.00000000
 
ion      s     py     pz     px    dxy    dyz    dz2    dxz  x2-y2    tot
    1  0.000  0.001  0.000  0.000  0.113  0.000  0.000  0.000  0.339  0.453
    2  0.000  0.001  0.000  0.000  0.113  0.000  0.000  0.000  0.339  0.453
tot    0.000  0.002  0.000  0.001  0.226  0.000  0.000  0.000  0.678  0.907
 
band    14 # energy   14.19140961 # occ.  2.00000000
 
ion      s     py     pz     px    dxy    dyz    dz2    dxz  x2-y2    tot
    1  0.000  0.000  0.042  0.000  0.000  0.073  0.000  0.218  0.000  0.332
    2  0.000  0.000  0.042  0.000  0.000  0.073  0.000  0.218  0.000  0.332
tot    0.000  0.000  0.085  0.000  0.000  0.145  0.000  0.435  0.000  0.665
 
band    15 # energy   14.99268759 # occ.  2.00000000
 
ion      s     py     pz     px    dxy    dyz    dz2    dxz  x2-y2    tot
    1  0.000  0.000  0.000  0.000  0.000  0.340  0.000  0.113  0.000  0.453
    2  0.000  0.000  0.000  0.000  0.000  0.340  0.000  0.113  0.000  0.453
tot    0.000  0.000  0.000  0.000  0.000  0.679  0.000  0.226  0.000  0.906
 
band    16 # energy   15.14301303 # occ.  2.00000000
 
ion      s     py     pz     px    dxy    dyz    dz2    dxz  x2-y2    tot
    1  0.000  0.000  0.032  0.000  0.000  0.086  0.000  0.257  0.000  0.374
    2  0.000  0.000  0.032  0.000  0.000  0.086  0.000  0.257  0.000  0.374
tot    0.000  0.000  0.064  0.000  0.000  0.171  0.000  0.514  0.000  0.749
 
band    17 # energy   18.15337776 # occ.  2.00000000
 
ion      s     py     pz     px    dxy    dyz    dz2    dxz  x2-y2    tot
    1  0.000  0.000  0.000  0.000  0.000  0.357  0.000  0.119  0.000  0.476
    2  0.000  0.000  0.000  0.000  0.000  0.357  0.000  0.119  0.000  0.476
tot    0.000  0.000  0.000  0.000  0.000  0.714  0.000  0.238  0.000  0.952
 
band    18 # energy   20.17168400 # occ.  0.00000000
 
ion      s     py     pz     px    dxy    dyz    dz2    dxz  x2-y2    tot
    1  0.000  0.000  0.060  0.000  0.000  0.072  0.000  0.217  0.000  0.350
    2  0.000  0.000  0.060  0.000  0.000  0.072  0.000  0.217  0.000  0.350
tot    0.000  0.000  0.121  0.000  0.000  0.145  0.000  0.434  0.000  0.699
 
band    19 # energy   25.63034848 # occ.  0.00000000
 
ion      s     py     pz     px    dxy    dyz    dz2    dxz  x2-y2    tot
    1  0.218  0.000  0.000  0.001  0.003  0.000  0.210  0.000  0.001  0.433
    2  0.218  0.000  0.000  0.001  0.003  0.000  0.210  0.000  0.001  0.433
tot    0.437  0.001  0.000  0.002  0.005  0.000  0.420  0.000  0.002  0.867
 
band    20 # energy   33.36863598 # occ.  0.00000000
 
ion      s     py     pz     px    dxy    dyz    dz2    dxz  x2-y2    tot
    1  0.004  0.000  0.000  0.000  0.015  0.000  0.002  0.000  0.005  0.027
    2  0.004  0.000  0.000  0.000  0.015  0.000  0.002  0.000  0.005  0.027
tot    0.008  0.000  0.000  0.001  0.030  0.000  0.004  0.000  0.010  0.053
 
band    21 # energy   34.19907625 # occ.  0.00000000
 
ion      s     py     pz     px    dxy    dyz    dz2    dxz  x2-y2    tot
    1  0.000  0.000  0.014  0.000  0.000  0.003  0.000  0.008  0.000  0.024
    2  0.000  0.000  0.014  0.000  0.000  0.003  0.000  0.008  0.000  0.024
tot    0.000  0.000  0.027  0.000  0.000  0.005  0.000  0.016  0.000  0.049
 
band    22 # energy   36.25435879 # occ.  0.00000000
 
ion      s     py     pz     px    dxy    dyz    dz2    dxz  x2-y2    tot
    1  0.000  0.000  0.000  0.001  0.011  0.000  0.027  0.000  0.004  0.043
    2  0.000  0.000  0.000  0.001  0.011  0.000  0.027  0.000  0.004  0.043
tot    0.000  0.000  0.000  0.001  0.022  0.000  0.055  0.000  0.007  0.086
 
band    23 # energy   39.02312333 # occ.  0.00000000
 
ion      s     py     pz     px    dxy    dyz    dz2    dxz  x2-y2    tot
    1  0.000  0.000  0.010  0.000  0.000  0.007  0.000  0.021  0.000  0.039
    2  0.000  0.000  0.010  0.000  0.000  0.007  0.000  0.021  0.000  0.039
tot    0.000  0.000  0.021  0.000  0.000  0.014  0.000  0.043  0.000  0.078
 
band    24 # energy   40.87902712 # occ.  0.00000000
 
ion      s     py     pz     px    dxy    dyz    dz2    dxz  x2-y2    tot
    1  0.005  0.031  0.000  0.093  0.026  0.000  0.010  0.000  0.009  0.174
    2  0.005  0.031  0.000  0.093  0.026  0.000  0.010  0.000  0.009  0.174
tot    0.011  0.062  0.000  0.186  0.052  0.000  0.019  0.000  0.017  0.348
 

 k-point     3 :    0.20000000-0.00000000 0.00000000     weight = 0.00750000

band     1 # energy  -35.95878743 # occ.  2.00000000
 
ion      s     py     pz     px    dxy    dyz    dz2    dxz  x2-y2    tot
    1  0.000  0.000  0.488  0.000  0.000  0.000  0.000  0.000  0.000  0.488
    2  0.000  0.000  0.488  0.000  0.000  0.000  0.000  0.000  0.000  0.488
tot    0.000  0.000  0.975  0.000  0.000  0.000  0.000  0.000  0.000  0.976
 
band     2 # energy  -35.59421549 # occ.  2.00000000
 
ion      s     py     pz     px    dxy    dyz    dz2    dxz  x2-y2    tot
    1  0.000  0.124  0.000  0.371  0.000  0.000  0.000  0.000  0.000  0.495
    2  0.000  0.124  0.000  0.371  0.000  0.000  0.000  0.000  0.000  0.495
tot    0.000  0.247  0.000  0.742  0.000  0.000  0.001  0.000  0.000  0.991
 
band     3 # energy  -35.47071160 # occ.  2.00000000
 
ion      s     py     pz     px    dxy    dyz    dz2    dxz  x2-y2    tot
    1  0.000  0.124  0.000  0.372  0.000  0.000  0.000  0.000  0.000  0.497
    2  0.000  0.124  0.000  0.372  0.000  0.000  0.000  0.000  0.000  0.497
tot    0.001  0.248  0.000  0.744  0.000  0.000  0.000  0.000  0.000  0.993
 
band     4 # energy  -35.28689822 # occ.  2.00000000
 
ion      s     py     pz     px    dxy    dyz    dz2    dxz  x2-y2    tot
    1  0.000  0.374  0.000  0.125  0.000  0.000  0.000  0.000  0.000  0.499
    2  0.000  0.374  0.000  0.125  0.000  0.000  0.000  0.000  0.000  0.499
tot    0.000  0.748  0.000  0.249  0.000  0.000  0.000  0.000  0.000  0.998
 
band     5 # energy  -35.12354790 # occ.  2.00000000
 
ion      s     py     pz     px    dxy    dyz    dz2    dxz  x2-y2    tot
    1  0.000  0.375  0.000  0.125  0.000  0.000  0.000  0.000  0.000  0.501
    2  0.000  0.375  0.000  0.125  0.000  0.000  0.000  0.000  0.000  0.501
tot    0.000  0.751  0.000  0.250  0.000  0.000  0.000  0.000  0.000  1.001
 
band     6 # energy  -35.03499826 # occ.  2.00000000
 
ion      s     py     pz     px    dxy    dyz    dz2    dxz  x2-y2    tot
    1  0.000  0.000  0.500  0.000  0.000  0.000  0.000  0.000  0.000  0.500
    2  0.000  0.000  0.500  0.000  0.000  0.000  0.000  0.000  0.000  0.500
tot    0.000  0.000  0.999  0.000  0.000  0.000  0.000  0.000  0.000  0.999
 
band     7 # energy    6.55881474 # occ.  2.00000000
 
ion      s     py     pz     px    dxy    dyz    dz2    dxz  x2-y2    tot
    1  0.236  0.004  0.000  0.011  0.011  0.000  0.002  0.000  0.004  0.266
    2  0.236  0.004  0.000  0.011  0.011  0.000  0.002  0.000  0.004  0.266
tot    0.472  0.007  0.000  0.021  0.021  0.000  0.004  0.000  0.007  0.533
 
band     8 # energy    8.90420277 # occ.  2.00000000
 
ion      s     py     pz     px    dxy    dyz    dz2    dxz  x2-y2    tot
    1  0.061  0.002  0.000  0.006  0.058  0.000  0.233  0.000  0.019  0.379
    2  0.061  0.002  0.000  0.006  0.058  0.000  0.233  0.000  0.019  0.379
tot    0.122  0.004  0.000  0.012  0.115  0.000  0.465  0.000  0.038  0.757
 
band     9 # energy   11.36943572 # occ.  2.00000000
 
ion      s     py     pz     px    dxy    dyz    dz2    dxz  x2-y2    tot
    1  0.006  0.003  0.000  0.008  0.184  0.000  0.141  0.000  0.061  0.402
    2  0.006  0.003  0.000  0.008  0.184  0.000  0.141  0.000  0.061  0.402
tot    0.012  0.005  0.000  0.015  0.368  0.000  0.281  0.000  0.123  0.804
 
band    10 # energy   12.04756010 # occ.  2.00000000
 
ion      s     py     pz     px    dxy    dyz    dz2    dxz  x2-y2    tot
    1  0.000  0.000  0.031  0.000  0.000  0.076  0.000  0.228  0.000  0.335
    2  0.000  0.000  0.031  0.000  0.000  0.076  0.000  0.228  0.000  0.335
tot    0.000  0.000  0.062  0.000  0.000  0.152  0.000  0.455  0.000  0.669
 
band    11 # energy   12.21107723 # occ.  2.00000000
 
ion      s     py     pz     px    dxy    dyz    dz2    dxz  x2-y2    tot
    1  0.009  0.001  0.000  0.002  0.258  0.000  0.071  0.000  0.086  0.427
    2  0.009  0.001  0.000  0.002  0.258  0.000  0.071  0.000  0.086  0.427
tot    0.018  0.001  0.000  0.004  0.516  0.000  0.142  0.000  0.172  0.853
 
band    12 # energy   13.69317557 # occ.  2.00000000
 
ion      s     py     pz     px    dxy    dyz    dz2    dxz  x2-y2    tot
    1  0.008  0.001  0.000  0.004  0.113  0.000  0.273  0.000  0.038  0.437
    2  0.008  0.001  0.000  0.004  0.113  0.000  0.273  0.000  0.038  0.437
tot    0.015  0.003  0.000  0.008  0.227  0.000  0.546  0.000  0.076  0.874
 
band    13 # energy   14.32362625 # occ.  2.00000000
 
ion      s     py     pz     px    dxy    dyz    dz2    dxz  x2-y2    tot
    1  0.000  0.000  0.020  0.000  0.000  0.093  0.000  0.280  0.000  0.394
    2  0.000  0.000  0.020  0.000  0.000  0.093  0.000  0.280  0.000  0.394
tot    0.000  0.000  0.040  0.000  0.000  0.187  0.000  0.560  0.000  0.787
 
band    14 # energy   14.32674268 # occ.  2.00000000
 
ion      s     py     pz     px    dxy    dyz    dz2    dxz  x2-y2    tot
    1  0.000  0.000  0.000  0.000  0.000  0.333  0.000  0.111  0.000  0.444
    2  0.000  0.000  0.000  0.000  0.000  0.333  0.000  0.111  0.000  0.444
tot    0.000  0.000  0.000  0.000  0.000  0.666  0.000  0.222  0.000  0.888
 
band    15 # energy   14.36075890 # occ.  2.00000000
 
ion      s     py     pz     px    dxy    dyz    dz2    dxz  x2-y2    tot
    1  0.000  0.002  0.000  0.001  0.110  0.000  0.000  0.000  0.330  0.443
    2  0.000  0.002  0.000  0.001  0.110  0.000  0.000  0.000  0.330  0.443
tot    0.000  0.004  0.000  0.001  0.220  0.000  0.000  0.000  0.661  0.887
 
band    16 # energy   14.93396842 # occ.  2.00000000
 
ion      s     py     pz     px    dxy    dyz    dz2    dxz  x2-y2    tot
    1  0.000  0.002  0.000  0.001  0.113  0.000  0.000  0.000  0.338  0.454
    2  0.000  0.002  0.000  0.001  0.113  0.000  0.000  0.000  0.338  0.454
tot    0.000  0.004  0.000  0.001  0.225  0.000  0.000  0.000  0.676  0.908
 
band    17 # energy   18.37136867 # occ.  1.67228490
 
ion      s     py     pz     px    dxy    dyz    dz2    dxz  x2-y2    tot
    1  0.000  0.000  0.000  0.000  0.000  0.362  0.000  0.121  0.000  0.482
    2  0.000  0.000  0.000  0.000  0.000  0.362  0.000  0.121  0.000  0.482
tot    0.000  0.000  0.000  0.000  0.000  0.724  0.000  0.241  0.000  0.965
 
band    18 # energy   23.12433104 # occ.  0.00000000
 
ion      s     py     pz     px    dxy    dyz    dz2    dxz  x2-y2    tot
    1  0.000  0.000  0.087  0.000  0.000  0.057  0.000  0.170  0.000  0.314
    2  0.000  0.000  0.087  0.000  0.000  0.057  0.000  0.170  0.000  0.314
tot    0.000  0.000  0.174  0.000  0.000  0.114  0.000  0.341  0.000  0.628
 
band    19 # energy   25.34050796 # occ.  0.00000000
 
ion      s     py     pz     px    dxy    dyz    dz2    dxz  x2-y2    tot
    1  0.218  0.001  0.000  0.004  0.008  0.000  0.184  0.000  0.003  0.418
    2  0.218  0.001  0.000  0.004  0.008  0.000  0.184  0.000  0.003  0.418
tot    0.437  0.003  0.000  0.009  0.015  0.000  0.368  0.000  0.005  0.837
 
band    20 # energy   34.77838996 # occ.  0.00000000
 
ion      s     py     pz     px    dxy    dyz    dz2    dxz  x2-y2    tot
    1  0.017  0.010  0.000  0.031  0.067  0.000  0.017  0.000  0.022  0.164
    2  0.017  0.010  0.000  0.031  0.067  0.000  0.017  0.000  0.022  0.164
tot    0.034  0.021  0.000  0.062  0.133  0.000  0.034  0.000  0.044  0.329
 
band    21 # energy   34.91125048 # occ.  0.00000000
 
ion      s     py     pz     px    dxy    dyz    dz2    dxz  x2-y2    tot
    1  0.000  0.000  0.008  0.000  0.000  0.004  0.000  0.012  0.000  0.023
    2  0.000  0.000  0.008  0.000  0.000  0.004  0.000  0.012  0.000  0.023
tot    0.000  0.000  0.016  0.000  0.000  0.008  0.000  0.023  0.000  0.047
 
band    22 # energy   37.53845137 # occ.  0.00000000
 
ion      s     py     pz     px    dxy    dyz    dz2    dxz  x2-y2    tot
    1  0.000  0.000  0.007  0.000  0.000  0.017  0.000  0.050  0.000  0.073
    2  0.000  0.000  0.007  0.000  0.000  0.017  0.000  0.050  0.000  0.073
tot    0.000  0.000  0.013  0.000  0.000  0.033  0.000  0.099  0.000  0.146
 
band    23 # energy   37.91245349 # occ.  0.00000000
 
ion      s     py     pz     px    dxy    dyz    dz2    dxz  x2-y2    tot
    1  0.004  0.012  0.000  0.035  0.033  0.000  0.039  0.000  0.011  0.133
    2  0.004  0.012  0.000  0.035  0.033  0.000  0.039  0.000  0.011  0.133
tot    0.009  0.023  0.000  0.070  0.065  0.000  0.077  0.000  0.022  0.266
 
band    24 # energy   38.43949640 # occ.  0.00000000
 
ion      s     py     pz     px    dxy    dyz    dz2    dxz  x2-y2    tot
    1  0.000  0.094  0.000  0.031  0.014  0.000  0.000  0.000  0.041  0.180
    2  0.000  0.094  0.000  0.031  0.014  0.000  0.000  0.000  0.041  0.180
tot    0.000  0.188  0.000  0.063  0.028  0.000  0.000  0.000  0.083  0.361
 

 k-point     4 :    0.30000000-0.00000000 0.00000000     weight = 0.00750000

band     1 # energy  -35.96874713 # occ.  2.00000000
 
ion      s     py     pz     px    dxy    dyz    dz2    dxz  x2-y2    tot
    1  0.000  0.123  0.000  0.368  0.000  0.000  0.000  0.000  0.000  0.491
    2  0.000  0.123  0.000  0.368  0.000  0.000  0.000  0.000  0.000  0.491
tot    0.000  0.245  0.000  0.736  0.000  0.000  0.001  0.000  0.000  0.982
 
band     2 # energy  -35.83442137 # occ.  2.00000000
 
ion      s     py     pz     px    dxy    dyz    dz2    dxz  x2-y2    tot
    1  0.000  0.123  0.000  0.369  0.000  0.000  0.000  0.000  0.000  0.493
    2  0.000  0.123  0.000  0.369  0.000  0.000  0.000  0.000  0.000  0.493
tot    0.001  0.246  0.000  0.738  0.000  0.000  0.000  0.000  0.000  0.986
 
band     3 # energy  -35.80351643 # occ.  2.00000000
 
ion      s     py     pz     px    dxy    dyz    dz2    dxz  x2-y2    tot
    1  0.000  0.000  0.490  0.000  0.000  0.000  0.000  0.000  0.000  0.490
    2  0.000  0.000  0.490  0.000  0.000  0.000  0.000  0.000  0.000  0.490
tot    0.000  0.000  0.980  0.000  0.000  0.000  0.000  0.000  0.000  0.980
 
band     4 # energy  -35.38891638 # occ.  2.00000000
 
ion      s     py     pz     px    dxy    dyz    dz2    dxz  x2-y2    tot
    1  0.000  0.373  0.000  0.124  0.000  0.000  0.000  0.000  0.000  0.498
    2  0.000  0.373  0.000  0.124  0.000  0.000  0.000  0.000  0.000  0.498
tot    0.000  0.747  0.000  0.249  0.000  0.000  0.000  0.000  0.000  0.996
 
band     5 # energy  -35.19760299 # occ.  2.00000000
 
ion      s     py     pz     px    dxy    dyz    dz2    dxz  x2-y2    tot
    1  0.000  0.375  0.000  0.125  0.000  0.000  0.000  0.000  0.000  0.500
    2  0.000  0.375  0.000  0.125  0.000  0.000  0.000  0.000  0.000  0.500
tot    0.000  0.750  0.000  0.250  0.000  0.000  0.000  0.000  0.000  1.000
 
band     6 # energy  -35.08765887 # occ.  2.00000000
 
ion      s     py     pz     px    dxy    dyz    dz2    dxz  x2-y2    tot
    1  0.000  0.000  0.499  0.000  0.000  0.000  0.000  0.000  0.000  0.499
    2  0.000  0.000  0.499  0.000  0.000  0.000  0.000  0.000  0.000  0.499
tot    0.000  0.000  0.998  0.000  0.000  0.000  0.000  0.000  0.000  0.998
 
band     7 # energy    7.89793217 # occ.  2.00000000
 
ion      s     py     pz     px    dxy    dyz    dz2    dxz  x2-y2    tot
    1  0.166  0.004  0.000  0.012  0.080  0.000  0.011  0.000  0.027  0.299
    2  0.166  0.004  0.000  0.012  0.080  0.000  0.011  0.000  0.027  0.299
tot    0.332  0.008  0.000  0.024  0.160  0.000  0.021  0.000  0.053  0.599
 
band     8 # energy    8.80692863 # occ.  2.00000000
 
ion      s     py     pz     px    dxy    dyz    dz2    dxz  x2-y2    tot
    1  0.030  0.000  0.000  0.001  0.183  0.000  0.118  0.000  0.061  0.394
    2  0.030  0.000  0.000  0.001  0.183  0.000  0.118  0.000  0.061  0.394
tot    0.060  0.001  0.000  0.003  0.365  0.000  0.237  0.000  0.122  0.788
 
band     9 # energy   10.35064282 # occ.  2.00000000
 
ion      s     py     pz     px    dxy    dyz    dz2    dxz  x2-y2    tot
    1  0.000  0.000  0.018  0.000  0.000  0.082  0.000  0.247  0.000  0.347
    2  0.000  0.000  0.018  0.000  0.000  0.082  0.000  0.247  0.000  0.347
tot    0.000  0.000  0.037  0.000  0.000  0.164  0.000  0.493  0.000  0.694
 
band    10 # energy   11.87761415 # occ.  2.00000000
 
ion      s     py     pz     px    dxy    dyz    dz2    dxz  x2-y2    tot
    1  0.024  0.006  0.000  0.017  0.195  0.000  0.056  0.000  0.065  0.364
    2  0.024  0.006  0.000  0.017  0.195  0.000  0.056  0.000  0.065  0.364
tot    0.049  0.012  0.000  0.035  0.391  0.000  0.112  0.000  0.130  0.727
 
band    11 # energy   12.49945296 # occ.  2.00000000
 
ion      s     py     pz     px    dxy    dyz    dz2    dxz  x2-y2    tot