<?xml version="1.0" encoding="ISO-8859-1"?>
<modeling>
 <generator>
  <i name="program" type="string">vasp </i>
  <i name="version" type="string">6.3.2  </i>
  <i name="subversion" type="string">27Jun22 (build Aug 12 2022 00:53:59) complex                          parallel </i>
  <i name="platform" type="string">tv2STD </i>
  <i name="date" type="string">2024 12 03 </i>
  <i name="time" type="string">01:37:56 </i>
 </generator>
 <incar>
  <i type="string" name="SYSTEM">Pt-hcc</i>
  <i type="int" name="ISTART">     0</i>
  <i type="string" name="PREC">Accurate      normal | accurate</i>
  <i type="string" name="ALGO">Normal     Normal, Fast, Very_Fast</i>
  <i type="logical" name="ADDGRID"> F  </i>
  <i type="int" name="ICHARG">     2</i>
  <i type="int" name="INIWAV">     1</i>
  <i type="int" name="NELM">   100</i>
  <i type="int" name="IBRION">     2</i>
  <i name="EDIFF">      0.00000100</i>
  <i name="EDIFFG">     -0.02000000</i>
  <i type="int" name="NSW">   100</i>
  <i type="int" name="ISIF">     2</i>
  <i type="int" name="ISYM">     1</i>
  <i name="ENCUT">    450.00000000</i>
  <i type="logical" name="LREAL"> F  </i>
  <i type="int" name="ISMEAR">     0</i>
  <i name="SIGMA">      0.05000000</i>
  <i type="int" name="NWRITE">     2</i>
  <i type="logical" name="LWAVE"> T  </i>
  <i type="logical" name="LCHARG"> T  </i>
  <i type="int" name="LORBIT">    11</i>
 </incar>
 <primitive_cell>
  <structure name="primitive_cell" >
   <crystal>
    <varray name="basis" >
     <v>       2.47767491       0.00000000       0.00000000 </v>
     <v>      -1.23883745       2.14572941       0.00000000 </v>
     <v>       0.00000000       0.00000000       4.29251404 </v>
    </varray>
    <i name="volume">     22.82080720 </i>
    <varray name="rec_basis" >
     <v>       0.40360420       0.23302099       0.00000000 </v>
     <v>       0.00000000       0.46604199       0.00000000 </v>
     <v>       0.00000000       0.00000000       0.23296371 </v>
    </varray>
   </crystal>
   <varray name="positions" >
    <v>       0.00000000       0.00000000       0.00000000 </v>
    <v>       0.33333333       0.66666667       0.50000000 </v>
   </varray>
  </structure>
  <varray name="primitive_index" >
   <v type="int" >        1 </v>
   <v type="int" >        2 </v>
  </varray>
 </primitive_cell>
 <kpoints>
  <generation param="Gamma">
   <v type="int" name="divisions">      10       10        8 </v>
   <v name="usershift">      0.00000000       0.00000000       0.00000000 </v>
   <v name="genvec1">      0.10000000      -0.00000000       0.00000000 </v>
   <v name="genvec2">      0.00000000       0.10000000       0.00000000 </v>
   <v name="genvec3">      0.00000000       0.00000000       0.12500000 </v>
   <v name="shift">      0.00000000       0.00000000       0.00000000 </v>
  </generation>
  <varray name="kpointlist" >
   <v>       0.00000000       0.00000000       0.00000000 </v>
   <v>       0.10000000      -0.00000000       0.00000000 </v>
   <v>       0.20000000      -0.00000000       0.00000000 </v>
   <v>       0.30000000      -0.00000000       0.00000000 </v>
   <v>       0.40000000      -0.00000000       0.00000000 </v>
   <v>       0.50000000      -0.00000000       0.00000000 </v>
   <v>       0.10000000       0.10000000       0.00000000 </v>
   <v>       0.20000000       0.10000000       0.00000000 </v>
   <v>       0.30000000       0.10000000       0.00000000 </v>
   <v>       0.40000000       0.10000000       0.00000000 </v>
   <v>       0.20000000       0.20000000       0.00000000 </v>
   <v>       0.30000000       0.20000000       0.00000000 </v>
   <v>       0.40000000       0.20000000       0.00000000 </v>
   <v>       0.30000000       0.30000000       0.00000000 </v>
   <v>       0.00000000       0.00000000       0.12500000 </v>
   <v>       0.10000000      -0.00000000       0.12500000 </v>
   <v>       0.20000000      -0.00000000       0.12500000 </v>
   <v>       0.30000000      -0.00000000       0.12500000 </v>
   <v>       0.40000000      -0.00000000       0.12500000 </v>
   <v>       0.50000000      -0.00000000       0.12500000 </v>
   <v>       0.10000000       0.10000000       0.12500000 </v>
   <v>       0.20000000       0.10000000       0.12500000 </v>
   <v>       0.30000000       0.10000000       0.12500000 </v>
   <v>       0.40000000       0.10000000       0.12500000 </v>
   <v>       0.20000000       0.20000000       0.12500000 </v>
   <v>       0.30000000       0.20000000       0.12500000 </v>
   <v>       0.40000000       0.20000000       0.12500000 </v>
   <v>       0.30000000       0.30000000       0.12500000 </v>
   <v>       0.00000000       0.00000000       0.25000000 </v>
   <v>       0.10000000      -0.00000000       0.25000000 </v>
   <v>       0.20000000      -0.00000000       0.25000000 </v>
   <v>       0.30000000      -0.00000000       0.25000000 </v>
   <v>       0.40000000      -0.00000000       0.25000000 </v>
   <v>       0.50000000      -0.00000000       0.25000000 </v>
   <v>       0.10000000       0.10000000       0.25000000 </v>
   <v>       0.20000000       0.10000000       0.25000000 </v>
   <v>       0.30000000       0.10000000       0.25000000 </v>
   <v>       0.40000000       0.10000000       0.25000000 </v>
   <v>       0.20000000       0.20000000       0.25000000 </v>
   <v>       0.30000000       0.20000000       0.25000000 </v>
   <v>       0.40000000       0.20000000       0.25000000 </v>
   <v>       0.30000000       0.30000000       0.25000000 </v>
   <v>       0.00000000       0.00000000       0.37500000 </v>
   <v>       0.10000000      -0.00000000       0.37500000 </v>
   <v>       0.20000000      -0.00000000       0.37500000 </v>
   <v>       0.30000000      -0.00000000       0.37500000 </v>
   <v>       0.40000000      -0.00000000       0.37500000 </v>
   <v>       0.50000000      -0.00000000       0.37500000 </v>
   <v>       0.10000000       0.10000000       0.37500000 </v>
   <v>       0.20000000       0.10000000       0.37500000 </v>
   <v>       0.30000000       0.10000000       0.37500000 </v>
   <v>       0.40000000       0.10000000       0.37500000 </v>
   <v>       0.20000000       0.20000000       0.37500000 </v>
   <v>       0.30000000       0.20000000       0.37500000 </v>
   <v>       0.40000000       0.20000000       0.37500000 </v>
   <v>       0.30000000       0.30000000       0.37500000 </v>
   <v>       0.00000000       0.00000000       0.50000000 </v>
   <v>       0.10000000      -0.00000000       0.50000000 </v>
   <v>       0.20000000      -0.00000000       0.50000000 </v>
   <v>       0.30000000      -0.00000000       0.50000000 </v>
   <v>       0.40000000      -0.00000000       0.50000000 </v>
   <v>       0.50000000      -0.00000000       0.50000000 </v>
   <v>       0.10000000       0.10000000       0.50000000 </v>
   <v>       0.20000000       0.10000000       0.50000000 </v>
   <v>       0.30000000       0.10000000       0.50000000 </v>
   <v>       0.40000000       0.10000000       0.50000000 </v>
   <v>       0.20000000       0.20000000       0.50000000 </v>
   <v>       0.30000000       0.20000000       0.50000000 </v>
   <v>       0.40000000       0.20000000       0.50000000 </v>
   <v>       0.30000000       0.30000000       0.50000000 </v>
  </varray>
  <varray name="weights" >
   <v>       0.00125000 </v>
   <v>       0.00750000 </v>
   <v>       0.00750000 </v>
   <v>       0.00750000 </v>
   <v>       0.00750000 </v>
   <v>       0.00375000 </v>
   <v>       0.00750000 </v>
   <v>       0.01500000 </v>
   <v>       0.01500000 </v>
   <v>       0.01500000 </v>
   <v>       0.00750000 </v>
   <v>       0.01500000 </v>
   <v>       0.00750000 </v>
   <v>       0.00750000 </v>
   <v>       0.00250000 </v>
   <v>       0.01500000 </v>
   <v>       0.01500000 </v>
   <v>       0.01500000 </v>
   <v>       0.01500000 </v>
   <v>       0.00750000 </v>
   <v>       0.01500000 </v>
   <v>       0.03000000 </v>
   <v>       0.03000000 </v>
   <v>       0.03000000 </v>
   <v>       0.01500000 </v>
   <v>       0.03000000 </v>
   <v>       0.01500000 </v>
   <v>       0.01500000 </v>
   <v>       0.00250000 </v>
   <v>       0.01500000 </v>
   <v>       0.01500000 </v>
   <v>       0.01500000 </v>
   <v>       0.01500000 </v>
   <v>       0.00750000 </v>
   <v>       0.01500000 </v>
   <v>       0.03000000 </v>
   <v>       0.03000000 </v>
   <v>       0.03000000 </v>
   <v>       0.01500000 </v>
   <v>       0.03000000 </v>
   <v>       0.01500000 </v>
   <v>       0.01500000 </v>
   <v>       0.00250000 </v>
   <v>       0.01500000 </v>
   <v>       0.01500000 </v>
   <v>       0.01500000 </v>
   <v>       0.01500000 </v>
   <v>       0.00750000 </v>
   <v>       0.01500000 </v>
   <v>       0.03000000 </v>
   <v>       0.03000000 </v>
   <v>       0.03000000 </v>
   <v>       0.01500000 </v>
   <v>       0.03000000 </v>
   <v>       0.01500000 </v>
   <v>       0.01500000 </v>
   <v>       0.00125000 </v>
   <v>       0.00750000 </v>
   <v>       0.00750000 </v>
   <v>       0.00750000 </v>
   <v>       0.00750000 </v>
   <v>       0.00375000 </v>
   <v>       0.00750000 </v>
   <v>       0.01500000 </v>
   <v>       0.01500000 </v>
   <v>       0.01500000 </v>
   <v>       0.00750000 </v>
   <v>       0.01500000 </v>
   <v>       0.00750000 </v>
   <v>       0.00750000 </v>
  </varray>
 </kpoints>
 <parameters>
  <separator name="general" >
   <i type="string" name="SYSTEM">Pt-hcc</i>
   <i type="logical" name="LCOMPAT"> F  </i>
  </separator>
  <separator name="electronic" >
   <i type="string" name="PREC">accura</i>
   <i name="ENMAX">    450.00000000</i>
   <i name="ENAUG">    527.01400000</i>
   <i name="EDIFF">      0.00000100</i>
   <i type="int" name="IALGO">    38</i>
   <i type="int" name="IWAVPR">    11</i>
   <i type="int" name="NBANDS">    24</i>
   <i type="int" name="NBANDSLOW">    -1</i>
   <i type="int" name="NBANDSHIGH">    -1</i>
   <i name="NELECT">     32.00000000</i>
   <i type="int" name="TURBO">     0</i>
   <i type="int" name="IRESTART">     0</i>
   <i type="int" name="NREBOOT">     0</i>
   <i type="int" name="NMIN">     0</i>
   <i name="EREF">      0.00000000</i>
   <separator name="electronic smearing" >
    <i type="int" name="ISMEAR">     0</i>
    <i name="SIGMA">      0.05000000</i>
    <i name="KSPACING">      0.50000000</i>
    <i type="logical" name="KGAMMA"> T  </i>
    <i type="logical" name="KBLOWUP"> T  </i>
   </separator>
   <separator name="electronic projectors" >
    <i type="logical" name="LREAL"> F  </i>
    <v name="ROPT">      0.00000000</v>
    <i type="int" name="LMAXPAW">  -100</i>
    <i type="int" name="LMAXMIX">     2</i>
    <i type="logical" name="NLSPLINE"> F  </i>
   </separator>
   <separator name="electronic startup" >
    <i type="int" name="ISTART">     0</i>
    <i type="int" name="ICHARG">     2</i>
    <i type="int" name="INIWAV">     1</i>
   </separator>
   <separator name="electronic spin" >
    <i type="int" name="ISPIN">     1</i>
    <i type="logical" name="LNONCOLLINEAR"> F  </i>
    <v name="MAGMOM">      1.00000000      1.00000000</v>
    <i name="NUPDOWN">     -1.00000000</i>
    <i type="logical" name="LSORBIT"> F  </i>
    <v name="SAXIS">      0.00000000      0.00000000      1.00000000</v>
    <i type="logical" name="LSPIRAL"> F  </i>
    <v name="QSPIRAL">      0.00000000      0.00000000      0.00000000</v>
    <i type="logical" name="LZEROZ"> F  </i>
   </separator>
   <separator name="electronic exchange-correlation" >
    <i type="logical" name="LASPH"> F  </i>
    <i type="logical" name="LMETAGGA"> F  </i>
   </separator>
   <separator name="electronic convergence" >
    <i type="int" name="NELM">   100</i>
    <i type="int" name="NELMDL">    -5</i>
    <i type="int" name="NELMIN">     2</i>
    <i name="ENINI">    450.00000000</i>
    <separator name="electronic convergence detail" >
     <i type="logical" name="LDIAG"> T  </i>
     <i type="logical" name="LSUBROT"> F  </i>
     <i name="WEIMIN">      0.00100000</i>
     <i name="EBREAK">      0.00000001</i>
     <i name="DEPER">      0.30000000</i>
     <i type="int" name="NRMM">     4</i>
     <i name="TIME">      0.40000000</i>
    </separator>
   </separator>
   <separator name="electronic mixer" >
    <i name="AMIX">      0.40000000</i>
    <i name="BMIX">      1.00000000</i>
    <i name="AMIN">      0.10000000</i>
    <i name="AMIX_MAG">      1.60000000</i>
    <i name="BMIX_MAG">      1.00000000</i>
    <separator name="electronic mixer details" >
     <i type="int" name="IMIX">     4</i>
     <i type="logical" name="MIXFIRST"> F  </i>
     <i type="int" name="MAXMIX">   -45</i>
     <i name="WC">    100.00000000</i>
     <i type="int" name="INIMIX">     1</i>
     <i type="int" name="MIXPRE">     1</i>
     <i type="int" name="MREMOVE">     5</i>
    </separator>
   </separator>
   <separator name="electronic dipolcorrection" >
    <i type="logical" name="LDIPOL"> F  </i>
    <i type="logical" name="LMONO"> F  </i>
    <i type="int" name="IDIPOL">     0</i>
    <i name="EPSILON">      1.00000000</i>
    <v name="DIPOL">   -100.00000000   -100.00000000   -100.00000000</v>
    <i name="EFIELD">      0.00000000</i>
   </separator>
  </separator>
  <separator name="grids" >
   <i type="int" name="NGX">    18</i>
   <i type="int" name="NGY">    18</i>
   <i type="int" name="NGZ">    30</i>
   <i type="int" name="NGXF">    36</i>
   <i type="int" name="NGYF">    36</i>
   <i type="int" name="NGZF">    60</i>
   <i type="logical" name="ADDGRID"> F  </i>
  </separator>
  <separator name="ionic" >
   <i type="int" name="NSW">   100</i>
   <i type="int" name="IBRION">     2</i>
   <i type="int" name="MDALGO">     0</i>
   <i type="int" name="ISIF">     2</i>
   <i name="PSTRESS">      0.00000000</i>
   <i name="EDIFFG">     -0.02000000</i>
   <i type="int" name="NFREE">     1</i>
   <i name="POTIM">      0.50000000</i>
   <i name="SMASS">     -3.00000000</i>
   <i name="SCALEE">      1.00000000</i>
  </separator>
  <separator name="ionic md" >
   <i name="TEBEG">      0.00010000</i>
   <i name="TEEND">      0.00010000</i>
   <i type="int" name="NBLOCK">     1</i>
   <i type="int" name="KBLOCK">   100</i>
   <i type="int" name="NPACO">   256</i>
   <i name="APACO">     10.00000000</i>
  </separator>
  <separator name="symmetry" >
   <i type="int" name="ISYM">     1</i>
   <i name="SYMPREC">      0.00001000</i>
  </separator>
  <separator name="dos" >
   <i type="int" name="LORBIT">    11</i>
   <v name="RWIGS">     -1.00000000</v>
   <i type="int" name="NEDOS">   301</i>
   <i name="EMIN">     10.00000000</i>
   <i name="EMAX">    -10.00000000</i>
   <i name="EFERMI">      0.00000000</i>
  </separator>
  <separator name="writing" >
   <i type="int" name="NWRITE">     2</i>
   <i type="logical" name="LWAVE"> T  </i>
   <i type="logical" name="LDOWNSAMPLE"> F  </i>
   <i type="logical" name="LCHARG"> T  </i>
   <i type="logical" name="LPARD"> F  </i>
   <i type="logical" name="LVTOT"> F  </i>
   <i type="logical" name="LVHAR"> F  </i>
   <i type="logical" name="LELF"> F  </i>
   <i type="logical" name="LOPTICS"> F  </i>
   <v name="STM">      0.00000000      0.00000000      0.00000000      0.00000000      0.00000000      0.00000000      0.00000000</v>
  </separator>
  <separator name="performance" >
   <i type="int" name="NPAR">    24</i>
   <i type="int" name="NSIM">     4</i>
   <i type="int" name="NBLK">    -1</i>
   <i type="logical" name="LPLANE"> T  </i>
   <i type="logical" name="LSCALAPACK"> T  </i>
   <i type="logical" name="LSCAAWARE"> F  </i>
   <i type="logical" name="LSCALU"> F  </i>
   <i type="logical" name="LASYNC"> F  </i>
   <i type="logical" name="LORBITALREAL"> F  </i>
  </separator>
  <separator name="miscellaneous" >
   <i type="int" name="IDIOT">     3</i>
   <i type="int" name="PHON_NSTRUCT">    -1</i>
   <i type="logical" name="LMUSIC"> F  </i>
   <v name="POMASS">    195.08000000</v>
   <v name="DARWINR">      0.00000000</v>
   <v name="DARWINV">      1.00000000</v>
   <i type="logical" name="LCORR"> T  </i>
  </separator>
  <i type="logical" name="GGA_COMPAT"> T  </i>
  <i type="logical" name="LBERRY"> F  </i>
  <i type="int" name="ICORELEVEL">     0</i>
  <i type="logical" name="LDAU"> F  </i>
  <i type="int" name="I_CONSTRAINED_M">     0</i>
  <separator name="electronic exchange-correlation" >
   <i type="string" name="GGA">--</i>
   <i type="int" name="VOSKOWN">     0</i>
   <i type="logical" name="LHFCALC"> F  </i>
   <i type="string" name="PRECFOCK"></i>
   <i type="logical" name="LSYMGRAD"> F  </i>
   <i type="logical" name="LHFONE"> F  </i>
   <i type="logical" name="LRHFCALC"> F  </i>
   <i type="logical" name="LTHOMAS"> F  </i>
   <i type="logical" name="LMODELHF"> F  </i>
   <i type="logical" name="LFOCKACE"> F  </i>
   <i name="ENCUT4O">     -1.00000000</i>
   <i type="int" name="EXXOEP">     0</i>
   <i type="int" name="FOURORBIT">     0</i>
   <i name="AEXX">      0.00000000</i>
   <i name="HFALPHA">      0.00000000</i>
   <i name="MCALPHA">      0.00000000</i>
   <i name="ALDAX">      1.00000000</i>
   <i name="AGGAX">      1.00000000</i>
   <i name="ALDAC">      1.00000000</i>
   <i name="AGGAC">      1.00000000</i>
   <i type="int" name="NKREDX">     1</i>
   <i type="int" name="NKREDY">     1</i>
   <i type="int" name="NKREDZ">     1</i>
   <i type="logical" name="SHIFTRED"> F  </i>
   <i type="logical" name="ODDONLY"> F  </i>
   <i type="logical" name="EVENONLY"> F  </i>
   <i type="int" name="LMAXFOCK">     0</i>
   <i type="int" name="NMAXFOCKAE">     0</i>
   <i type="logical" name="LFOCKAEDFT"> F  </i>
   <i name="HFSCREEN">      0.00000000</i>
   <i name="HFSCREENC">      0.00000000</i>
   <i type="int" name="NBANDSGWLOW">     0</i>
  </separator>
  <separator name="vdW DFT" >
   <i type="logical" name="LUSE_VDW"> F  </i>
   <i name="Zab_VDW">     -0.84910000</i>
   <i name="PARAM1">      0.12340000</i>
   <i name="PARAM2">      1.00000000</i>
   <i name="PARAM3">      0.00000000</i>
  </separator>
  <separator name="model GW" >
   <i type="int" name="MODEL_GW">     0</i>
   <i name="MODEL_EPS0">      6.84624216</i>
   <i name="MODEL_ALPHA">      1.00000000</i>
  </separator>
  <separator name="linear response parameters" >
   <i type="logical" name="LEPSILON"> F  </i>
   <i type="logical" name="LRPA"> F  </i>
   <i type="logical" name="LNABLA"> F  </i>
   <i type="logical" name="LVEL"> F  </i>
   <i name="CSHIFT">      0.10000000</i>
   <i name="OMEGAMAX">     -1.00000000</i>
   <i name="DEG_THRESHOLD">      0.00200000</i>
   <i name="RTIME">     -0.10000000</i>
   <i name="WPLASMAI">      0.00000000</i>
   <v name="DFIELD">      0.00000000      0.00000000      0.00000000</v>
   <v name="WPLASMA">      0.00000000      0.00000000      0.00000000      0.00000000      0.00000000      0.00000000      0.00000000      0.00000000      0.00000000</v>
  </separator>
  <separator name="orbital magnetization" >
   <i type="logical" name="NUCIND"> F  </i>
   <v name="MAGPOS">      0.00000000      0.00000000      0.00000000</v>
   <i type="logical" name="LNICSALL"> T  </i>
   <i type="logical" name="ORBITALMAG"> F  </i>
   <i type="logical" name="LMAGBLOCH"> F  </i>
   <i type="logical" name="LCHIMAG"> F  </i>
   <i type="logical" name="LGAUGE"> T  </i>
   <i type="int" name="MAGATOM">     0</i>
   <v name="MAGDIPOL">      0.00000000      0.00000000      0.00000000</v>
   <v name="AVECCONST">      0.00000000      0.00000000      0.00000000</v>
  </separator>
  <separator name="response functions" >
   <i type="logical" name="LFINITE_TEMPERATURE"> F  </i>
   <i type="logical" name="LADDER"> F  </i>
   <i type="logical" name="LRPAFORCE"> F  </i>
   <i type="logical" name="LFXC"> F  </i>
   <i type="logical" name="LHARTREE"> T  </i>
   <i type="int" name="IBSE">     0</i>
   <v type="int" name="KPOINT">    -1     0     0     0</v>
   <i type="logical" name="LTCTC"> F  </i>
   <i type="logical" name="LTCTE"> F  </i>
   <i type="logical" name="LTETE"> F  </i>
   <i type="logical" name="LTRIPLET"> F  </i>
   <i type="logical" name="LFXCEPS"> F  </i>
   <i type="logical" name="LFXHEG"> F  </i>
   <i type="int" name="NATURALO">     2</i>
   <i type="logical" name="LHOLEGF"> F  </i>
   <i type="logical" name="L2ORDER"> F  </i>
   <i type="logical" name="LDMP1"> F  </i>
   <i type="logical" name="LMP2LT"> F  </i>
   <i type="logical" name="LSMP2LT"> F  </i>
   <i type="logical" name="LGWLF"> F  </i>
   <i name="ENCUTGW">     -2.00000000</i>
   <i name="ENCUTGWSOFT">     -2.00000000</i>
   <i name="ENCUTLF">     -1.00000000</i>
   <i type="logical" name="LESF_SPLINES"> F  </i>
   <i type="int" name="LMAXMP2">    -1</i>
   <i name="SCISSOR">      0.00000000</i>
   <i type="int" name="NOMEGA">     0</i>
   <i type="int" name="NOMEGAR">     0</i>
   <i type="int" name="NBANDSGW">    -1</i>
   <i type="int" name="NBANDSO">    -1</i>
   <i type="int" name="NBANDSV">    -1</i>
   <i type="int" name="NELMGW">     1</i>
   <i type="int" name="NELMHF">     1</i>
   <i type="int" name="DIM">     3</i>
   <i type="int" name="IESPILON">     4</i>
   <i type="int" name="ANTIRES">     0</i>
   <i name="OMEGAMAX">    -30.00000000</i>
   <i name="OMEGAMIN">    -30.00000000</i>
   <i name="OMEGATL">   -200.00000000</i>
   <i type="int" name="OMEGAGRID">     0</i>
   <i name="CSHIFT">     -0.10000000</i>
   <i type="logical" name="LSELFENERGY"> F  </i>
   <i type="logical" name="LSPECTRAL"> F  </i>
   <i type="logical" name="LSPECTRALGW"> F  </i>
   <i type="logical" name="LSINGLES"> F  </i>
   <i type="logical" name="LFERMIGW"> F  </i>
   <i type="logical" name="ODDONLYGW"> F  </i>
   <i type="logical" name="EVENONLYGW"> F  </i>
   <i type="int" name="NKREDLFX">     1</i>
   <i type="int" name="NKREDLFY">     1</i>
   <i type="int" name="NKREDLFZ">     1</i>
   <i type="int" name="MAXMEM">  2800</i>
   <i type="int" name="TELESCOPE">     0</i>
   <i type="int" name="NTAUPAR">    -1</i>
   <i type="int" name="NOMEGAPAR">    -1</i>
   <i name="DAMP_NEWTON">      0.80000001</i>
   <i name="LAMBDA">      1.00000000</i>
  </separator>
  <separator name="External order field" >
   <i name="OFIELD_KAPPA">      0.00000000</i>
   <v name="OFIELD_K">      0.00000000      0.00000000      0.00000000</v>
   <i name="OFIELD_Q6_NEAR">      0.00000000</i>
   <i name="OFIELD_Q6_FAR">      0.00000000</i>
   <i name="OFIELD_A">      0.00000000</i>
  </separator>
  <separator name="optional k-points parameters" >
   <i type="int" name="KPOINTS_OPT_MODE">     1</i>
   <i type="logical" name="LKPOINTS_OPT"> F  </i>
  </separator>
 </parameters>
 <atominfo>
  <atoms>       2 </atoms>
  <types>       1 </types>
  <array name="atoms" >
   <dimension dim="1">ion</dimension>
   <field type="string">element</field>
   <field type="int">atomtype</field>
   <set>
    <rc><c>Pt</c><c>   1</c></rc>
    <rc><c>Pt</c><c>   1</c></rc>
   </set>
  </array>
  <array name="atomtypes" >
   <dimension dim="1">type</dimension>
   <field type="int">atomspertype</field>
   <field type="string">element</field>
   <field>mass</field>
   <field>valence</field>
   <field type="string">pseudopotential</field>
   <set>
    <rc><c>   2</c><c>Pt</c><c>    195.08000000</c><c>     16.00000000</c><c>  PAW_PBE Pt_pv 12Dec2005               </c></rc>
   </set>
  </array>
 </atominfo>
 <structure name="initialpos" >
  <crystal>
   <varray name="basis" >
    <v>       2.47767491       0.00000000       0.00000000 </v>
    <v>      -1.23883745       2.14572941       0.00000000 </v>
    <v>       0.00000000       0.00000000       4.29251404 </v>
   </varray>
   <i name="volume">     22.82080720 </i>
   <varray name="rec_basis" >
    <v>       0.40360420       0.23302099       0.00000000 </v>
    <v>       0.00000000       0.46604199       0.00000000 </v>
    <v>       0.00000000       0.00000000       0.23296371 </v>
   </varray>
  </crystal>
  <varray name="positions" >
   <v>       0.00000000       0.00000000       0.00000000 </v>
   <v>       0.33333333       0.66666667       0.50000000 </v>
  </varray>
 </structure>
 <calculation>
  <scstep>
   <time name="dav">    0.28    0.28</time>
   <time name="total">    0.29    0.29</time>
   <energy>
    <i name="alphaZ">    420.54928892 </i>
    <i name="ewald">  -4726.81013395 </i>
    <i name="hartreedc">   -612.28531841 </i>
    <i name="XCdc">    131.29707291 </i>
    <i name="pawpsdc">   4131.50523274 </i>
    <i name="pawaedc">  -4061.67189606 </i>
    <i name="eentropy">     -0.00102441 </i>
    <i name="bandstr">     -4.29455729 </i>
    <i name="atom">   4856.42966544 </i>
    <i name="e_fr_energy">    134.71832990 </i>
    <i name="e_wo_entrp">    134.71935431 </i>
    <i name="e_0_energy">    134.71884210 </i>
   </energy>
  </scstep>
  <scstep>
   <time name="dav">    0.29    0.29</time>
   <time name="total">    0.29    0.29</time>
   <energy>
    <i name="e_fr_energy">     -7.98307517 </i>
    <i name="e_wo_entrp">     -7.98112228 </i>
    <i name="e_0_energy">     -7.98209872 </i>
   </energy>
  </scstep>
  <scstep>
   <time name="dav">    0.50    0.50</time>
   <time name="total">    0.50    0.50</time>
   <energy>
    <i name="e_fr_energy">     -8.88640152 </i>
    <i name="e_wo_entrp">     -8.88450049 </i>
    <i name="e_0_energy">     -8.88545101 </i>
   </energy>
  </scstep>
  <scstep>
   <time name="dav">    0.49    0.49</time>
   <time name="total">    0.49    0.49</time>
   <energy>
    <i name="e_fr_energy">     -8.88816430 </i>
    <i name="e_wo_entrp">     -8.88626573 </i>
    <i name="e_0_energy">     -8.88721502 </i>
   </energy>
  </scstep>
  <scstep>
   <time name="dav">    0.58    0.58</time>
   <time name="total">    0.60    0.60</time>
   <energy>
    <i name="e_fr_energy">     -8.88816471 </i>
    <i name="e_wo_entrp">     -8.88626614 </i>
    <i name="e_0_energy">     -8.88721543 </i>
   </energy>
  </scstep>
  <scstep>
   <time name="dav">    0.29    0.30</time>
   <time name="total">    0.32    0.32</time>
   <energy>
    <i name="e_fr_energy">     -8.46458932 </i>
    <i name="e_wo_entrp">     -8.46220276 </i>
    <i name="e_0_energy">     -8.46339604 </i>
   </energy>
  </scstep>
  <scstep>
   <time name="dav">    0.39    0.39</time>
   <time name="total">    0.41    0.41</time>
   <energy>
    <i name="e_fr_energy">     -8.39906331 </i>
    <i name="e_wo_entrp">     -8.39702341 </i>
    <i name="e_0_energy">     -8.39804336 </i>
   </energy>
  </scstep>
  <scstep>
   <time name="dav">    0.34    0.34</time>
   <time name="total">    0.36    0.36</time>
   <energy>
    <i name="e_fr_energy">     -8.39392693 </i>
    <i name="e_wo_entrp">     -8.39187936 </i>
    <i name="e_0_energy">     -8.39290315 </i>
   </energy>
  </scstep>
  <scstep>
   <time name="dav">    0.42    0.42</time>
   <time name="total">    0.44    0.44</time>
   <energy>
    <i name="e_fr_energy">     -8.39383494 </i>
    <i name="e_wo_entrp">     -8.39178558 </i>
    <i name="e_0_energy">     -8.39281026 </i>
   </energy>
  </scstep>
  <scstep>
   <time name="dav">    0.52    0.53</time>
   <time name="total">    0.54    0.55</time>
   <energy>
    <i name="e_fr_energy">     -8.39383456 </i>
    <i name="e_wo_entrp">     -8.39178315 </i>
    <i name="e_0_energy">     -8.39280885 </i>
   </energy>
  </scstep>
  <scstep>
   <time name="dav">    0.25    0.25</time>
   <time name="total">    0.25    0.26</time>
   <energy>
    <i name="alphaZ">    420.54928892 </i>
    <i name="ewald">  -4726.81013395 </i>
    <i name="hartreedc">   -581.46856496 </i>
    <i name="XCdc">    129.89445022 </i>
    <i name="pawpsdc">   6213.32223306 </i>
    <i name="pawaedc">  -6151.36025196 </i>
    <i name="eentropy">     -0.00205107 </i>
    <i name="bandstr">   -168.94847008 </i>
    <i name="atom">   4856.42966544 </i>
    <i name="e_fr_energy">     -8.39383437 </i>
    <i name="e_wo_entrp">     -8.39178331 </i>
    <i name="e_0_energy">     -8.39280884 </i>
   </energy>
  </scstep>
  <structure>
   <crystal>
    <varray name="basis" >
     <v>       2.47767491       0.00000000       0.00000000 </v>
     <v>      -1.23883745       2.14572941       0.00000000 </v>
     <v>       0.00000000       0.00000000       4.29251404 </v>
    </varray>
    <i name="volume">     22.82080720 </i>
    <varray name="rec_basis" >
     <v>       0.40360420       0.23302099       0.00000000 </v>
     <v>       0.00000000       0.46604199       0.00000000 </v>
     <v>       0.00000000       0.00000000       0.23296371 </v>
    </varray>
   </crystal>
   <varray name="positions" >
    <v>       0.00000000       0.00000000       0.00000000 </v>
    <v>       0.33333333       0.66666667       0.50000000 </v>
   </varray>
  </structure>
  <varray name="forces" >
   <v>      -0.00000000       0.00000000       0.00000000 </v>
   <v>       0.00000000       0.00000000       0.00000000 </v>
  </varray>
  <varray name="stress" >
   <v>    1908.83416215      -0.00000000      -0.00000000 </v>
   <v>      -0.00000000    1908.83416215       0.00000000 </v>
   <v>       0.00000000      -0.00000000    1676.18090370 </v>
  </varray>
  <energy>
   <i name="e_fr_energy">     -8.39383437 </i>
   <i name="e_wo_entrp">     -8.39178331 </i>
   <i name="e_0_energy">     -8.39280884 </i>
  </energy>
  <time name="totalsc">    4.76    4.90</time>
  <eigenvalues>
   <array>
    <dimension dim="1">band</dimension>
    <dimension dim="2">kpoint</dimension>
    <dimension dim="3">spin</dimension>
    <field>eigene</field>
    <field>occ</field>
    <set>
     <set comment="spin 1">
      <set comment="kpoint 1">
       <r>  -36.1089    1.0000 </r>
       <r>  -35.1666    1.0000 </r>
       <r>  -35.1666    1.0000 </r>
       <r>  -35.0426    1.0000 </r>
       <r>  -35.0426    1.0000 </r>
       <r>  -34.9994    1.0000 </r>
       <r>    4.7377    1.0000 </r>
       <r>    7.4963    1.0000 </r>
       <r>   11.8095    1.0000 </r>
       <r>   12.6577    1.0000 </r>
       <r>   12.6577    1.0000 </r>
       <r>   13.3036    1.0000 </r>
       <r>   13.3036    1.0000 </r>
       <r>   15.3043    1.0000 </r>
       <r>   15.3043    1.0000 </r>
       <r>   16.2554    1.0000 </r>
       <r>   18.0146    1.0000 </r>
       <r>   18.0146    1.0000 </r>
       <r>   25.7177    0.0000 </r>
       <r>   32.3533    0.0000 </r>
       <r>   33.4382    0.0000 </r>
       <r>   35.2851    0.0000 </r>
       <r>   41.8918    0.0000 </r>
       <r>   41.8918    0.0000 </r>
      </set>
      <set comment="kpoint 2">
       <r>  -36.0694    1.0000 </r>
       <r>  -35.2869    1.0000 </r>
       <r>  -35.2009    1.0000 </r>
       <r>  -35.1636    1.0000 </r>
       <r>  -35.0645    1.0000 </r>
       <r>  -35.0077    1.0000 </r>
       <r>    5.2453    1.0000 </r>
       <r>    7.9697    1.0000 </r>
       <r>   11.6969    1.0000 </r>
       <r>   12.6511    1.0000 </r>
       <r>   13.0337    1.0000 </r>
       <r>   13.0977    1.0000 </r>
       <r>   13.7275    1.0000 </r>
       <r>   14.1914    1.0000 </r>
       <r>   14.9927    1.0000 </r>
       <r>   15.1430    1.0000 </r>
       <r>   18.1534    1.0000 </r>
       <r>   20.1717    0.0000 </r>
       <r>   25.6303    0.0000 </r>
       <r>   33.3686    0.0000 </r>
       <r>   34.1991    0.0000 </r>
       <r>   36.2544    0.0000 </r>
       <r>   39.0231    0.0000 </r>
       <r>   40.8790    0.0000 </r>
      </set>
      <set comment="kpoint 3">
       <r>  -35.9588    1.0000 </r>
       <r>  -35.5942    1.0000 </r>
       <r>  -35.4707    1.0000 </r>
       <r>  -35.2869    1.0000 </r>
       <r>  -35.1235    1.0000 </r>
       <r>  -35.0350    1.0000 </r>
       <r>    6.5588    1.0000 </r>
       <r>    8.9042    1.0000 </r>
       <r>   11.3694    1.0000 </r>
       <r>   12.0476    1.0000 </r>
       <r>   12.2111    1.0000 </r>
       <r>   13.6932    1.0000 </r>
       <r>   14.3236    1.0000 </r>
       <r>   14.3267    1.0000 </r>
       <r>   14.3608    1.0000 </r>
       <r>   14.9340    1.0000 </r>
       <r>   18.3714    0.8361 </r>
       <r>   23.1243    0.0000 </r>
       <r>   25.3405    0.0000 </r>
       <r>   34.7784    0.0000 </r>
       <r>   34.9113    0.0000 </r>
       <r>   37.5385    0.0000 </r>
       <r>   37.9125    0.0000 </r>
       <r>   38.4395    0.0000 </r>
      </set>
      <set comment="kpoint 4">
       <r>  -35.9687    1.0000 </r>
       <r>  -35.8344    1.0000 </r>
       <r>  -35.8035    1.0000 </r>
       <r>  -35.3889    1.0000 </r>
       <r>  -35.1976    1.0000 </r>
       <r>  -35.0877    1.0000 </r>
       <r>    7.8979    1.0000 </r>
       <r>    8.8069    1.0000 </r>
       <r>   10.3506    1.0000 </r>
       <r>   11.8776    1.0000 </r>
       <r>   12.4995    1.0000 </r>
       <r>   13.4966    1.0000 </r>
       <r>   13.6652    1.0000 </r>
       <r>   15.6242    1.0000 </r>
       <r>   16.2269    1.0000 </r>
       <r>   16.6886    1.0000 </r>
       <r>   18.4885    0.0098 </r>
       <r>   25.0917    0.0000 </r>
       <r>   25.9537    0.0000 </r>
       <r>   31.6070    0.0000 </r>
       <r>   33.2463    0.0000 </r>
       <r>   35.4502    0.0000 </r>
       <r>   38.7480    0.0000 </r>
       <r>   39.3169    0.0000 </r>
      </set>
      <set comment="kpoint 5">
       <r>  -36.2655    1.0000 </r>
       <r>  -36.1174    1.0000 </r>
       <r>  -35.6449    1.0000 </r>
       <r>  -35.4689    1.0000 </r>
       <r>  -35.2593    1.0000 </r>
       <r>  -35.1616    1.0000 </r>
       <r>    8.1045    1.0000 </r>
       <r>    8.4894    1.0000 </r>
       <r>    9.2772    1.0000 </r>
       <r>   12.7493    1.0000 </r>
       <r>   12.9126    1.0000 </r>
       <r>   13.2058    1.0000 </r>
       <r>   13.7529    1.0000 </r>
       <r>   18.1436    1.0000 </r>
       <r>   18.4904    0.0085 </r>
       <r>   18.5168    0.0009 </r>
       <r>   18.6140    0.0000 </r>
       <r>   25.4968    0.0000 </r>
       <r>   27.6423    0.0000 </r>
       <r>   28.1753    0.0000 </r>
       <r>   31.9673    0.0000 </r>
       <r>   32.7796    0.0000 </r>
       <r>   34.5824    0.0000 </r>
       <r>   38.2667    0.0000 </r>
      </set>
      <set comment="kpoint 6">
       <r>  -36.3778    1.0000 </r>
       <r>  -36.2234    1.0000 </r>
       <r>  -35.5657    1.0000 </r>
       <r>  -35.4992    1.0000 </r>
       <r>  -35.2830    1.0000 </r>
       <r>  -35.2095    1.0000 </r>
       <r>    7.9140    1.0000 </r>
       <r>    8.4479    1.0000 </r>
       <r>    8.9094    1.0000 </r>
       <r>   12.7048    1.0000 </r>
       <r>   13.0432    1.0000 </r>
       <r>   13.5343    1.0000 </r>
       <r>   14.0070    1.0000 </r>
       <r>   18.5165    0.0009 </r>
       <r>   19.0104    0.0000 </r>
       <r>   19.3803    0.0000 </r>
       <r>   21.5905    0.0000 </r>
       <r>   23.5331    0.0000 </r>
       <r>   27.7810    0.0000 </r>
       <r>   29.0805    0.0000 </r>
       <r>   31.1490    0.0000 </r>
       <r>   31.5091    0.0000 </r>
       <r>   31.5666    0.0000 </r>
       <r>   37.8631    0.0000 </r>
      </set>
      <set comment="kpoint 7">
       <r>  -35.9943    1.0000 </r>
       <r>  -35.4770    1.0000 </r>
       <r>  -35.4018    1.0000 </r>
       <r>  -35.2414    1.0000 </r>
       <r>  -35.1227    1.0000 </r>
       <r>  -35.0252    1.0000 </r>
       <r>    6.1760    1.0000 </r>
       <r>    8.7739    1.0000 </r>
       <r>   11.2432    1.0000 </r>
       <r>   12.5452    1.0000 </r>
       <r>   12.6993    1.0000 </r>
       <r>   12.9980    1.0000 </r>
       <r>   13.9363    1.0000 </r>
       <r>   14.0461    1.0000 </r>
       <r>   14.6935    1.0000 </r>
       <r>   15.0879    1.0000 </r>
       <r>   18.2034    1.0000 </r>
       <r>   22.3805    0.0000 </r>
       <r>   25.4418    0.0000 </r>
       <r>   34.8381    0.0000 </r>
       <r>   35.4481    0.0000 </r>
       <r>   36.9620    0.0000 </r>
       <r>   37.4910    0.0000 </r>
       <r>   38.9156    0.0000 </r>
      </set>
      <set comment="kpoint 8">
       <r>  -35.8603    1.0000 </r>
       <r>  -35.7931    1.0000 </r>
       <r>  -35.7119    1.0000 </r>
       <r>  -35.3615    1.0000 </r>
       <r>  -35.2137    1.0000 </r>
       <r>  -35.0660    1.0000 </r>
       <r>    7.6608    1.0000 </r>
       <r>    9.4451    1.0000 </r>
       <r>   11.0243    1.0000 </r>
       <r>   11.0560    1.0000 </r>
       <r>   12.1535    1.0000 </r>
       <r>   13.1062    1.0000 </r>
       <r>   14.0176    1.0000 </r>
       <r>   14.4721    1.0000 </r>
       <r>   15.7860    1.0000 </r>
       <r>   16.5339    1.0000 </r>
       <r>   18.2219    1.0000 </r>
       <r>   25.1635    0.0000 </r>
       <r>   25.2033    0.0000 </r>
       <r>   33.4874    0.0000 </r>
       <r>   34.6822    0.0000 </r>
       <r>   35.2075    0.0000 </r>
       <r>   37.5790    0.0000 </r>
       <r>   39.7596    0.0000 </r>
      </set>
      <set comment="kpoint 9">
       <r>  -36.1180    1.0000 </r>
       <r>  -35.9953    1.0000 </r>
       <r>  -35.7001    1.0000 </r>
       <r>  -35.4850    1.0000 </r>
       <r>  -35.3002    1.0000 </r>
       <r>  -35.1330    1.0000 </r>
       <r>    8.6459    1.0000 </r>
       <r>    8.9482    1.0000 </r>
       <r>    9.7468    1.0000 </r>
       <r>   11.9798    1.0000 </r>
       <r>   12.6482    1.0000 </r>
       <r>   12.9165    1.0000 </r>
       <r>   13.6501    1.0000 </r>
       <r>   15.8597    1.0000 </r>
       <r>   17.6268    1.0000 </r>
       <r>   18.2086    1.0000 </r>
       <r>   18.9028    0.0000 </r>
       <r>   25.5537    0.0000 </r>
       <r>   27.7885    0.0000 </r>
       <r>   29.3360    0.0000 </r>
       <r>   32.4703    0.0000 </r>
       <r>   33.1498    0.0000 </r>
       <r>   37.2771    0.0000 </r>
       <r>   38.2266    0.0000 </r>
      </set>
      <set comment="kpoint 10">
       <r>  -36.3156    1.0000 </r>
       <r>  -36.1658    1.0000 </r>
       <r>  -35.5675    1.0000 </r>
       <r>  -35.5599    1.0000 </r>
       <r>  -35.3529    1.0000 </r>
       <r>  -35.2075    1.0000 </r>
       <r>    8.4074    1.0000 </r>
       <r>    8.8787    1.0000 </r>
       <r>    9.0700    1.0000 </r>
       <r>   12.5970    1.0000 </r>
       <r>   12.9745    1.0000 </r>
       <r>   13.1955    1.0000 </r>
       <r>   13.6848    1.0000 </r>
       <r>   17.9679    1.0000 </r>
       <r>   18.1798    1.0000 </r>
       <r>   18.6420    0.0000 </r>
       <r>   21.3953    0.0000 </r>
       <r>   25.2164    0.0000 </r>
       <r>   27.4423    0.0000 </r>
       <r>   29.5590    0.0000 </r>
       <r>   30.0277    0.0000 </r>
       <r>   32.3305    0.0000 </r>
       <r>   33.3291    0.0000 </r>
       <r>   37.6362    0.0000 </r>
      </set>
      <set comment="kpoint 11">
       <r>  -35.9805    1.0000 </r>
       <r>  -35.9649    1.0000 </r>
       <r>  -35.7201    1.0000 </r>
       <r>  -35.5037    1.0000 </r>
       <r>  -35.3728    1.0000 </r>
       <r>  -35.1231    1.0000 </r>
       <r>    9.1436    1.0000 </r>
       <r>   10.0746    1.0000 </r>
       <r>   10.3192    1.0000 </r>
       <r>   10.3405    1.0000 </r>
       <r>   12.3028    1.0000 </r>
       <r>   12.5625    1.0000 </r>
       <r>   13.9749    1.0000 </r>
       <r>   14.5870    1.0000 </r>
       <r>   17.5893    1.0000 </r>
       <r>   17.8867    1.0000 </r>
       <r>   19.0274    0.0000 </r>
       <r>   25.6722    0.0000 </r>
       <r>   27.8084    0.0000 </r>
       <r>   30.7120    0.0000 </r>
       <r>   31.3349    0.0000 </r>
       <r>   34.5193    0.0000 </r>
       <r>   37.5500    0.0000 </r>
       <r>   38.4637    0.0000 </r>
      </set>
      <set comment="kpoint 12">
       <r>  -36.1712    1.0000 </r>
       <r>  -36.0674    1.0000 </r>
       <r>  -35.6681    1.0000 </r>
       <r>  -35.5706    1.0000 </r>
       <r>  -35.5073    1.0000 </r>
       <r>  -35.2047    1.0000 </r>
       <r>    9.3917    1.0000 </r>
       <r>    9.6649    1.0000 </r>
       <r>    9.8927    1.0000 </r>
       <r>   11.7134    1.0000 </r>
       <r>   12.0973    1.0000 </r>
       <r>   13.1641    1.0000 </r>
       <r>   13.4097    1.0000 </r>
       <r>   15.9227    1.0000 </r>
       <r>   17.6370    1.0000 </r>
       <r>   18.3560    0.9213 </r>
       <r>   21.5858    0.0000 </r>
       <r>   26.5908    0.0000 </r>
       <r>   27.6887    0.0000 </r>
       <r>   28.7593    0.0000 </r>
       <r>   30.3487    0.0000 </r>
       <r>   34.0831    0.0000 </r>
       <r>   35.3584    0.0000 </r>
       <r>   37.1180    0.0000 </r>
      </set>
      <set comment="kpoint 13">
       <r>  -36.2417    1.0000 </r>
       <r>  -36.0922    1.0000 </r>
       <r>  -35.7475    1.0000 </r>
       <r>  -35.5574    1.0000 </r>
       <r>  -35.4861    1.0000 </r>
       <r>  -35.2635    1.0000 </r>
       <r>    9.1432    1.0000 </r>
       <r>    9.4918    1.0000 </r>
       <r>    9.8951    1.0000 </r>
       <r>   12.3253    1.0000 </r>
       <r>   12.5601    1.0000 </r>
       <r>   12.5763    1.0000 </r>
       <r>   13.8215    1.0000 </r>
       <r>   17.2247    1.0000 </r>
       <r>   17.5459    1.0000 </r>
       <r>   18.0461    1.0000 </r>
       <r>   23.3051    0.0000 </r>
       <r>   24.3040    0.0000 </r>
       <r>   27.1460    0.0000 </r>
       <r>   29.9854    0.0000 </r>
       <r>   31.6172    0.0000 </r>
       <r>   33.4088    0.0000 </r>
       <r>   33.8686    0.0000 </r>
       <r>   36.5453    0.0000 </r>
      </set>
      <set comment="kpoint 14">
       <r>  -36.1274    1.0000 </r>
       <r>  -36.0140    1.0000 </r>
       <r>  -35.8687    1.0000 </r>
       <r>  -35.7258    1.0000 </r>
       <r>  -35.4398    1.0000 </r>
       <r>  -35.3003    1.0000 </r>
       <r>    9.2477    1.0000 </r>
       <r>   10.4623    1.0000 </r>
       <r>   10.7940    1.0000 </r>
       <r>   11.5148    1.0000 </r>
       <r>   12.0466    1.0000 </r>
       <r>   12.5074    1.0000 </r>
       <r>   13.9885    1.0000 </r>
       <r>   16.5244    1.0000 </r>
       <r>   17.2427    1.0000 </r>
       <r>   17.7521    1.0000 </r>
       <r>   23.4782    0.0000 </r>
       <r>   24.5435    0.0000 </r>
       <r>   25.9771    0.0000 </r>
       <r>   31.4660    0.0000 </r>
       <r>   32.9772    0.0000 </r>
       <r>   34.5118    0.0000 </r>
       <r>   34.9443    0.0000 </r>
       <r>   35.6224    0.0000 </r>
      </set>
      <set comment="kpoint 15">
       <r>  -36.0687    1.0000 </r>
       <r>  -35.1618    1.0000 </r>
       <r>  -35.1618    1.0000 </r>
       <r>  -35.0474    1.0000 </r>
       <r>  -35.0474    1.0000 </r>
       <r>  -35.0439    1.0000 </r>
       <r>    4.9283    1.0000 </r>
       <r>    7.5130    1.0000 </r>
       <r>   11.7509    1.0000 </r>
       <r>   12.6252    1.0000 </r>
       <r>   12.6252    1.0000 </r>
       <r>   13.2344    1.0000 </r>
       <r>   13.2344    1.0000 </r>
       <r>   15.4756    1.0000 </r>
       <r>   15.4756    1.0000 </r>
       <r>   15.5820    1.0000 </r>
       <r>   17.9818    1.0000 </r>
       <r>   17.9818    1.0000 </r>
       <r>   26.6113    0.0000 </r>
       <r>   31.8528    0.0000 </r>
       <r>   34.2873    0.0000 </r>
       <r>   34.8639    0.0000 </r>
       <r>   40.6719    0.0000 </r>
       <r>   40.6719    0.0000 </r>
      </set>
      <set comment="kpoint 16">
       <r>  -36.0320    1.0000 </r>
       <r>  -35.2802    1.0000 </r>
       <r>  -35.1958    1.0000 </r>
       <r>  -35.1777    1.0000 </r>
       <r>  -35.0697    1.0000 </r>
       <r>  -35.0394    1.0000 </r>
       <r>    5.4302    1.0000 </r>
       <r>    7.9947    1.0000 </r>
       <r>   11.7023    1.0000 </r>
       <r>   12.4958    1.0000 </r>
       <r>   12.8475    1.0000 </r>
       <r>   13.0496    1.0000 </r>
       <r>   13.6505    1.0000 </r>
       <r>   14.1541    1.0000 </r>
       <r>   15.1959    1.0000 </r>
       <r>   15.2125    1.0000 </r>
       <r>   18.0968    1.0000 </r>
       <r>   19.6517    0.0000 </r>
       <r>   26.6187    0.0000 </r>
       <r>   32.8349    0.0000 </r>
       <r>   35.0514    0.0000 </r>
       <r>   35.7523    0.0000 </r>
       <r>   38.8083    0.0000 </r>
       <r>   40.4159    0.0000 </r>
      </set>
      <set comment="kpoint 17">
       <r>  -35.9365    1.0000 </r>
       <r>  -35.5793    1.0000 </r>
       <r>  -35.4844    1.0000 </r>
       <r>  -35.2805    1.0000 </r>
       <r>  -35.1296    1.0000 </r>
       <r>  -35.0600    1.0000 </r>
       <r>    6.7075    1.0000 </r>
       <r>    8.9560    1.0000 </r>
       <r>   11.4140    1.0000 </r>
       <r>   11.7306    1.0000 </r>
       <r>   12.1517    1.0000 </r>
       <r>   13.5005    1.0000 </r>
       <r>   14.0617    1.0000 </r>
       <r>   14.6678    1.0000 </r>
       <r>   14.7119    1.0000 </r>
       <r>   14.9744    1.0000 </r>
       <r>   18.2681    1.0000 </r>
       <r>   21.9365    0.0000 </r>
       <r>   26.7153    0.0000 </r>
       <r>   34.6658    0.0000 </r>
       <r>   34.9797    0.0000 </r>
       <r>   37.1621    0.0000 </r>
       <r>   38.4431    0.0000 </r>
       <r>   38.5356    0.0000 </r>
      </set>
      <set comment="kpoint 18">
       <r>  -35.9951    1.0000 </r>
       <r>  -35.8571    1.0000 </r>
       <r>  -35.7375    1.0000 </r>
       <r>  -35.3817    1.0000 </r>
       <r>  -35.2052    1.0000 </r>
       <r>  -35.1044    1.0000 </r>
       <r>    7.9019    1.0000 </r>
       <r>    8.8696    1.0000 </r>
       <r>   10.4113    1.0000 </r>
       <r>   11.5136    1.0000 </r>
       <r>   12.5435    1.0000 </r>
       <r>   13.7643    1.0000 </r>
       <r>   13.7691    1.0000 </r>
       <r>   15.6918    1.0000 </r>
       <r>   16.2637    1.0000 </r>
       <r>   16.5969    1.0000 </r>
       <r>   18.3617    0.8947 </r>
       <r>   23.5181    0.0000 </r>
       <r>   27.2948    0.0000 </r>
       <r>   31.9924    0.0000 </r>
       <r>   33.5928    0.0000 </r>
       <r>   35.7979    0.0000 </r>
       <r>   38.0488    0.0000 </r>
       <r>   39.4737    0.0000 </r>
      </set>
      <set comment="kpoint 19">
       <r>  -36.2745    1.0000 </r>
       <r>  -36.1348    1.0000 </r>
       <r>  -35.6110    1.0000 </r>
       <r>  -35.4612    1.0000 </r>
       <r>  -35.2674    1.0000 </r>
       <r>  -35.1691    1.0000 </r>
       <r>    8.0639    1.0000 </r>
       <r>    8.3171    1.0000 </r>
       <r>    9.6419    1.0000 </r>
       <r>   11.6279    1.0000 </r>
       <r>   13.3454    1.0000 </r>
       <r>   13.3910    1.0000 </r>
       <r>   14.5649    1.0000 </r>
       <r>   18.0122    1.0000 </r>
       <r>   18.1697    1.0000 </r>
       <r>   18.4766    0.0229 </r>
       <r>   18.6906    0.0000 </r>
       <r>   24.4207    0.0000 </r>
       <r>   27.4618    0.0000 </r>
       <r>   29.3083    0.0000 </r>
       <r>   32.2820    0.0000 </r>
       <r>   33.2150    0.0000 </r>
       <r>   34.5380    0.0000 </r>
       <r>   38.2034    0.0000 </r>
      </set>
      <set comment="kpoint 20">
       <r>  -36.3846    1.0000 </r>
       <r>  -36.2398    1.0000 </r>
       <r>  -35.5389    1.0000 </r>
       <r>  -35.4913    1.0000 </r>
       <r>  -35.2914    1.0000 </r>
       <r>  -35.2111    1.0000 </r>
       <r>    7.9715    1.0000 </r>
       <r>    8.0541    1.0000 </r>
       <r>    9.3927    1.0000 </r>
       <r>   11.6963    1.0000 </r>
       <r>   13.1905    1.0000 </r>
       <r>   13.6296    1.0000 </r>
       <r>   15.1932    1.0000 </r>
       <r>   18.1724    1.0000 </r>
       <r>   19.0448    0.0000 </r>
       <r>   19.3682    0.0000 </r>
       <r>   21.1418    0.0000 </r>
       <r>   23.3149    0.0000 </r>
       <r>   27.7363    0.0000 </r>
       <r>   28.7008    0.0000 </r>
       <r>   31.7554    0.0000 </r>
       <r>   31.8363    0.0000 </r>
       <r>   32.0350    0.0000 </r>
       <r>   37.9816    0.0000 </r>
      </set>
      <set comment="kpoint 21">
       <r>  -35.9651    1.0000 </r>
       <r>  -35.4662    1.0000 </r>
       <r>  -35.4111    1.0000 </r>
       <r>  -35.2418    1.0000 </r>
       <r>  -35.1282    1.0000 </r>
       <r>  -35.0516    1.0000 </r>
       <r>    6.3424    1.0000 </r>
       <r>    8.8179    1.0000 </r>
       <r>   11.2964    1.0000 </r>
       <r>   12.0607    1.0000 </r>
       <r>   12.5968    1.0000 </r>
       <r>   13.0049    1.0000 </r>
       <r>   13.9275    1.0000 </r>
       <r>   14.2496    1.0000 </r>
       <r>   14.7837    1.0000 </r>
       <r>   15.2236    1.0000 </r>
       <r>   18.1203    1.0000 </r>
       <r>   21.4173    0.0000 </r>
       <r>   26.6778    0.0000 </r>
       <r>   34.3937    0.0000 </r>
       <r>   36.0517    0.0000 </r>
       <r>   36.4641    0.0000 </r>
       <r>   37.4108    0.0000 </r>
       <r>   39.4269    0.0000 </r>
      </set>
      <set comment="kpoint 22">
       <r>  -35.8898    1.0000 </r>
       <r>  -35.7501    1.0000 </r>
       <r>  -35.7036    1.0000 </r>
       <r>  -35.3594    1.0000 </r>
       <r>  -35.2203    1.0000 </r>
       <r>  -35.0841    1.0000 </r>
       <r>    7.7514    1.0000 </r>
       <r>    9.5183    1.0000 </r>
       <r>   10.7969    1.0000 </r>
       <r>   11.1766    1.0000 </r>
       <r>   12.0299    1.0000 </r>
       <r>   13.0584    1.0000 </r>
       <r>   14.2034    1.0000 </r>
       <r>   14.4536    1.0000 </r>
       <r>   15.9752    1.0000 </r>
       <r>   16.4360    1.0000 </r>
       <r>   18.1330    1.0000 </r>
       <r>   23.2211    0.0000 </r>
       <r>   27.1456    0.0000 </r>
       <r>   33.6553    0.0000 </r>
       <r>   34.7997    0.0000 </r>
       <r>   35.5457    0.0000 </r>
       <r>   37.4056    0.0000 </r>
       <r>   40.1998    0.0000 </r>
      </set>
      <set comment="kpoint 23">
       <r>  -36.1301    1.0000 </r>
       <r>  -36.0132    1.0000 </r>
       <r>  -35.6598    1.0000 </r>
       <r>  -35.4784    1.0000 </r>
       <r>  -35.3087    1.0000 </r>
       <r>  -35.1408    1.0000 </r>
       <r>    8.5072    1.0000 </r>
       <r>    8.9865    1.0000 </r>
       <r>    9.9951    1.0000 </r>
       <r>   11.3771    1.0000 </r>
       <r>   12.8139    1.0000 </r>
       <r>   13.3508    1.0000 </r>
       <r>   13.7078    1.0000 </r>
       <r>   15.8703    1.0000 </r>
       <r>   17.7172    1.0000 </r>
       <r>   17.8334    1.0000 </r>
       <r>   19.0350    0.0000 </r>
       <r>   24.5154    0.0000 </r>
       <r>   27.9427    0.0000 </r>
       <r>   30.3274    0.0000 </r>
       <r>   32.7533    0.0000 </r>
       <r>   33.4501    0.0000 </r>
       <r>   36.9041    0.0000 </r>
       <r>   38.4399    0.0000 </r>
      </set>
      <set comment="kpoint 24">
       <r>  -36.3224    1.0000 </r>
       <r>  -36.1827    1.0000 </r>
       <r>  -35.5758    1.0000 </r>
       <r>  -35.5175    1.0000 </r>
       <r>  -35.3644    1.0000 </r>
       <r>  -35.2055    1.0000 </r>
       <r>    8.3801    1.0000 </r>
       <r>    8.4976    1.0000 </r>
       <r>    9.6641    1.0000 </r>
       <r>   11.6168    1.0000 </r>
       <r>   12.7742    1.0000 </r>
       <r>   13.8181    1.0000 </r>
       <r>   14.4456    1.0000 </r>
       <r>   17.7696    1.0000 </r>
       <r>   17.9751    1.0000 </r>
       <r>   18.7253    0.0000 </r>
       <r>   21.2944    0.0000 </r>
       <r>   24.7686    0.0000 </r>
       <r>   27.3257    0.0000 </r>
       <r>   29.6399    0.0000 </r>
       <r>   30.5003    0.0000 </r>
       <r>   32.5916    0.0000 </r>
       <r>   33.6285    0.0000 </r>
       <r>   37.6881    0.0000 </r>
      </set>
      <set comment="kpoint 25">
       <r>  -35.9926    1.0000 </r>
       <r>  -35.9865    1.0000 </r>
       <r>  -35.6703    1.0000 </r>
       <r>  -35.5069    1.0000 </r>
       <r>  -35.3775    1.0000 </r>
       <r>  -35.1308    1.0000 </r>
       <r>    9.1262    1.0000 </r>
       <r>    9.8650    1.0000 </r>
       <r>   10.3400    1.0000 </r>
       <r>   10.5851    1.0000 </r>
       <r>   12.3674    1.0000 </r>
       <r>   12.5555    1.0000 </r>
       <r>   13.7725    1.0000 </r>
       <r>   14.8111    1.0000 </r>
       <r>   17.4816    1.0000 </r>
       <r>   17.7951    1.0000 </r>
       <r>   19.1733    0.0000 </r>
       <r>   24.6708    0.0000 </r>
       <r>   28.2683    0.0000 </r>
       <r>   31.4589    0.0000 </r>
       <r>   31.5934    0.0000 </r>
       <r>   34.6924    0.0000 </r>
       <r>   37.3685    0.0000 </r>
       <r>   38.7115    0.0000 </r>
      </set>
      <set comment="kpoint 26">
       <r>  -36.1767    1.0000 </r>
       <r>  -36.0847    1.0000 </r>
       <r>  -35.6760    1.0000 </r>
       <r>  -35.5533    1.0000 </r>
       <r>  -35.4966    1.0000 </r>
       <r>  -35.2010    1.0000 </r>
       <r>    9.1821    1.0000 </r>
       <r>    9.7481    1.0000 </r>
       <r>   10.1368    1.0000 </r>
       <r>   11.2011    1.0000 </r>
       <r>   12.4521    1.0000 </r>
       <r>   13.0700    1.0000 </r>
       <r>   13.6009    1.0000 </r>
       <r>   16.0103    1.0000 </r>
       <r>   17.2489    1.0000 </r>
       <r>   18.5625    0.0000 </r>
       <r>   21.6635    0.0000 </r>
       <r>   26.5029    0.0000 </r>
       <r>   27.0545    0.0000 </r>
       <r>   28.9420    0.0000 </r>
       <r>   31.1975    0.0000 </r>
       <r>   34.1848    0.0000 </r>
       <r>   35.1161    0.0000 </r>
       <r>   37.3475    0.0000 </r>
      </set>
      <set comment="kpoint 27">
       <r>  -36.2459    1.0000 </r>
       <r>  -36.1092    1.0000 </r>
       <r>  -35.7538    1.0000 </r>
       <r>  -35.5720    1.0000 </r>
       <r>  -35.4530    1.0000 </r>
       <r>  -35.2529    1.0000 </r>
       <r>    8.9663    1.0000 </r>
       <r>    9.5644    1.0000 </r>
       <r>   10.2350    1.0000 </r>
       <r>   11.5460    1.0000 </r>
       <r>   12.1251    1.0000 </r>
       <r>   13.4388    1.0000 </r>
       <r>   14.0762    1.0000 </r>
       <r>   17.1417    1.0000 </r>
       <r>   17.2665    1.0000 </r>
       <r>   18.1909    1.0000 </r>
       <r>   23.3772    0.0000 </r>
       <r>   24.3295    0.0000 </r>
       <r>   27.5295    0.0000 </r>
       <r>   29.7149    0.0000 </r>
       <r>   30.7977    0.0000 </r>
       <r>   34.0271    0.0000 </r>
       <r>   34.2673    0.0000 </r>
       <r>   36.3983    0.0000 </r>
      </set>
      <set comment="kpoint 28">
       <r>  -36.1249    1.0000 </r>
       <r>  -36.0323    1.0000 </r>
       <r>  -35.8803    1.0000 </r>
       <r>  -35.7394    1.0000 </r>
       <r>  -35.4105    1.0000 </r>
       <r>  -35.2852    1.0000 </r>
       <r>    9.3362    1.0000 </r>
       <r>   10.3918    1.0000 </r>
       <r>   10.7814    1.0000 </r>
       <r>   11.2143    1.0000 </r>
       <r>   12.3861    1.0000 </r>
       <r>   12.3877    1.0000 </r>
       <r>   13.9945    1.0000 </r>
       <r>   16.6747    1.0000 </r>
       <r>   16.8402    1.0000 </r>
       <r>   17.9317    1.0000 </r>
       <r>   23.6190    0.0000 </r>
       <r>   24.7129    0.0000 </r>
       <r>   26.4252    0.0000 </r>
       <r>   30.4688    0.0000 </r>
       <r>   33.2764    0.0000 </r>
       <r>   33.4373    0.0000 </r>
       <r>   34.9946    0.0000 </r>
       <r>   36.5969    0.0000 </r>
      </set>
      <set comment="kpoint 29">
       <r>  -35.9529    1.0000 </r>
       <r>  -35.1683    1.0000 </r>
       <r>  -35.1489    1.0000 </r>
       <r>  -35.1489    1.0000 </r>
       <r>  -35.0609    1.0000 </r>
       <r>  -35.0609    1.0000 </r>
       <r>    5.4648    1.0000 </r>
       <r>    7.5240    1.0000 </r>
       <r>   11.6228    1.0000 </r>
       <r>   12.5739    1.0000 </r>
       <r>   12.5739    1.0000 </r>
       <r>   13.0588    1.0000 </r>
       <r>   13.0588    1.0000 </r>
       <r>   14.1450    1.0000 </r>
       <r>   15.9223    1.0000 </r>
       <r>   15.9223    1.0000 </r>
       <r>   17.8490    1.0000 </r>
       <r>   17.8490    1.0000 </r>
       <r>   28.6996    0.0000 </r>
       <r>   31.4325    0.0000 </r>
       <r>   33.9858    0.0000 </r>
       <r>   35.5097    0.0000 </r>
       <r>   39.7281    0.0000 </r>
       <r>   39.7281    0.0000 </r>
      </set>
      <set comment="kpoint 30">
       <r>  -35.9256    1.0000 </r>
       <r>  -35.2640    1.0000 </r>
       <r>  -35.2390    1.0000 </r>
       <r>  -35.1806    1.0000 </r>
       <r>  -35.1081    1.0000 </r>
       <r>  -35.0841    1.0000 </r>
       <r>    5.9536    1.0000 </r>
       <r>    8.0268    1.0000 </r>
       <r>   11.6703    1.0000 </r>
       <r>   12.2403    1.0000 </r>
       <r>   12.4030    1.0000 </r>
       <r>   12.9756    1.0000 </r>
       <r>   13.4642    1.0000 </r>
       <r>   13.6558    1.0000 </r>
       <r>   15.6903    1.0000 </r>
       <r>   15.6996    1.0000 </r>
       <r>   17.9017    1.0000 </r>
       <r>   18.7798    0.0000 </r>
       <r>   28.7483    0.0000 </r>
       <r>   32.3960    0.0000 </r>
       <r>   34.8589    0.0000 </r>
       <r>   36.2267    0.0000 </r>
       <r>   38.5601    0.0000 </r>
       <r>   39.7281    0.0000 </r>
      </set>
      <set comment="kpoint 31">
       <r>  -35.8750    1.0000 </r>
       <r>  -35.5515    1.0000 </r>
       <r>  -35.5079    1.0000 </r>
       <r>  -35.2627    1.0000 </r>
       <r>  -35.1471    1.0000 </r>
       <r>  -35.1317    1.0000 </r>
       <r>    7.1334    1.0000 </r>
       <r>    9.0625    1.0000 </r>
       <r>   11.1377    1.0000 </r>
       <r>   11.6118    1.0000 </r>
       <r>   11.7750    1.0000 </r>
       <r>   13.2169    1.0000 </r>
       <r>   13.9332    1.0000 </r>
       <r>   14.5725    1.0000 </r>
       <r>   15.4546    1.0000 </r>
       <r>   15.4619    1.0000 </r>
       <r>   17.9561    1.0000 </r>
       <r>   20.3095    0.0000 </r>
       <r>   28.8280    0.0000 </r>
       <r>   34.4256    0.0000 </r>
       <r>   35.3952    0.0000 </r>
       <r>   36.6987    0.0000 </r>
       <r>   38.9138    0.0000 </r>
       <r>   39.0393    0.0000 </r>
      </set>
      <set comment="kpoint 32">
       <r>  -36.0243    1.0000 </r>
       <r>  -35.8985    1.0000 </r>
       <r>  -35.6170    1.0000 </r>
       <r>  -35.3611    1.0000 </r>
       <r>  -35.2261    1.0000 </r>
       <r>  -35.1548    1.0000 </r>
       <r>    7.9707    1.0000 </r>
       <r>    9.0003    1.0000 </r>
       <r>   10.3505    1.0000 </r>
       <r>   11.0094    1.0000 </r>
       <r>   12.7474    1.0000 </r>
       <r>   14.0388    1.0000 </r>
       <r>   14.0701    1.0000 </r>
       <r>   16.0282    1.0000 </r>
       <r>   16.1464    1.0000 </r>
       <r>   16.5609    1.0000 </r>
       <r>   18.0310    1.0000 </r>
       <r>   21.5586    0.0000 </r>
       <r>   28.6931    0.0000 </r>
       <r>   33.1111    0.0000 </r>
       <r>   34.1490    0.0000 </r>
       <r>   36.7854    0.0000 </r>
       <r>   37.3825    0.0000 </r>
       <r>   38.2240    0.0000 </r>
      </set>
      <set comment="kpoint 33">
       <r>  -36.2899    1.0000 </r>
       <r>  -36.1777    1.0000 </r>
       <r>  -35.5251    1.0000 </r>
       <r>  -35.4387    1.0000 </r>
       <r>  -35.2905    1.0000 </r>
       <r>  -35.1935    1.0000 </r>
       <r>    7.8725    1.0000 </r>
       <r>    8.3703    1.0000 </r>
       <r>   10.0415    1.0000 </r>
       <r>   10.5751    1.0000 </r>
       <r>   13.7562    1.0000 </r>
       <r>   13.8153    1.0000 </r>
       <r>   15.8638    1.0000 </r>
       <r>   17.2109    1.0000 </r>
       <r>   18.0956    1.0000 </r>
       <r>   18.2439    1.0000 </r>
       <r>   18.6944    0.0000 </r>
       <r>   22.5165    0.0000 </r>
       <r>   27.8158    0.0000 </r>
       <r>   30.3717    0.0000 </r>
       <r>   32.8806    0.0000 </r>
       <r>   34.3933    0.0000 </r>
       <r>   34.7718    0.0000 </r>
       <r>   37.9492    0.0000 </r>
      </set>
      <set comment="kpoint 34">
       <r>  -36.3964    1.0000 </r>
       <r>  -36.2826    1.0000 </r>
       <r>  -35.4700    1.0000 </r>
       <r>  -35.4683    1.0000 </r>
       <r>  -35.3152    1.0000 </r>
       <r>  -35.2216    1.0000 </r>
       <r>    7.7317    1.0000 </r>
       <r>    8.1015    1.0000 </r>
       <r>    9.8447    1.0000 </r>
       <r>   10.5233    1.0000 </r>
       <r>   13.6253    1.0000 </r>
       <r>   14.0849    1.0000 </r>
       <r>   16.9147    1.0000 </r>
       <r>   17.3352    1.0000 </r>
       <r>   19.0965    0.0000 </r>
       <r>   19.3337    0.0000 </r>
       <r>   19.9456    0.0000 </r>
       <r>   22.6674    0.0000 </r>
       <r>   27.6664    0.0000 </r>
       <r>   28.2080    0.0000 </r>
       <r>   32.6511    0.0000 </r>
       <r>   32.7855    0.0000 </r>
       <r>   33.2713    0.0000 </r>
       <r>   38.3168    0.0000 </r>
      </set>
      <set comment="kpoint 35">
       <r>  -35.8835    1.0000 </r>
       <r>  -35.4461    1.0000 </r>
       <r>  -35.4351    1.0000 </r>
       <r>  -35.2412    1.0000 </r>
       <r>  -35.1437    1.0000 </r>
       <r>  -35.1209    1.0000 </r>
       <r>    6.8185    1.0000 </r>
       <r>    8.9011    1.0000 </r>
       <r>   11.4378    1.0000 </r>
       <r>   11.4623    1.0000 </r>
       <r>   11.9698    1.0000 </r>
       <r>   13.0360    1.0000 </r>
       <r>   13.7445    1.0000 </r>
       <r>   14.2507    1.0000 </r>
       <r>   15.4544    1.0000 </r>
       <r>   15.6010    1.0000 </r>
       <r>   17.8565    1.0000 </r>
       <r>   19.9750    0.0000 </r>
       <r>   28.8468    0.0000 </r>
       <r>   33.9636    0.0000 </r>
       <r>   35.9329    0.0000 </r>
       <r>   36.8585    0.0000 </r>
       <r>   37.3470    0.0000 </r>
       <r>   39.1704    0.0000 </r>
      </set>
      <set comment="kpoint 36">
       <r>  -35.9072    1.0000 </r>
       <r>  -35.7652    1.0000 </r>
       <r>  -35.6096    1.0000 </r>
       <r>  -35.3519    1.0000 </r>
       <r>  -35.2392    1.0000 </r>
       <r>  -35.1362    1.0000 </r>
       <r>    8.0178    1.0000 </r>
       <r>    9.7050    1.0000 </r>
       <r>   10.3773    1.0000 </r>
       <r>   11.3264    1.0000 </r>
       <r>   11.7492    1.0000 </r>
       <r>   12.9208    1.0000 </r>
       <r>   14.1256    1.0000 </r>
       <r>   15.0764    1.0000 </r>
       <r>   16.2278    1.0000 </r>
       <r>   16.3616    1.0000 </r>
       <r>   17.8850    1.0000 </r>
       <r>   21.3391    0.0000 </r>
       <r>   29.0202    0.0000 </r>
       <r>   34.2835    0.0000 </r>
       <r>   34.9831    0.0000 </r>
       <r>   36.2967    0.0000 </r>
       <r>   37.1387    0.0000 </r>
       <r>   39.1643    0.0000 </r>
      </set>
      <set comment="kpoint 37">
       <r>  -36.1504    1.0000 </r>
       <r>  -36.0537    1.0000 </r>
       <r>  -35.5701    1.0000 </r>
       <r>  -35.4557    1.0000 </r>
       <r>  -35.3321    1.0000 </r>
       <r>  -35.1677    1.0000 </r>
       <r>    8.3438    1.0000 </r>
       <r>    9.1168    1.0000 </r>
       <r>   10.1474    1.0000 </r>
       <r>   10.8527    1.0000 </r>
       <r>   12.8510    1.0000 </r>
       <r>   13.8141    1.0000 </r>
       <r>   14.1395    1.0000 </r>
       <r>   16.0064    1.0000 </r>
       <r>   16.9967    1.0000 </r>
       <r>   18.1135    1.0000 </r>
       <r>   19.0918    0.0000 </r>
       <r>   22.6069    0.0000 </r>
       <r>   28.5643    0.0000 </r>
       <r>   31.8942    0.0000 </r>
       <r>   33.2230    0.0000 </r>
       <r>   34.2633    0.0000 </r>
       <r>   36.5878    0.0000 </r>
       <r>   37.9811    0.0000 </r>
      </set>
      <set comment="kpoint 38">
       <r>  -36.3340    1.0000 </r>
       <r>  -36.2250    1.0000 </r>
       <r>  -35.5608    1.0000 </r>
       <r>  -35.4445    1.0000 </r>
       <r>  -35.3923    1.0000 </r>
       <r>  -35.2083    1.0000 </r>
       <r>    8.0864    1.0000 </r>
       <r>    8.6223    1.0000 </r>
       <r>   10.1870    1.0000 </r>
       <r>   10.5514    1.0000 </r>
       <r>   12.7641    1.0000 </r>
       <r>   14.5272    1.0000 </r>
       <r>   15.4908    1.0000 </r>
       <r>   16.9259    1.0000 </r>
       <r>   17.8757    1.0000 </r>
       <r>   18.9324    0.0000 </r>
       <r>   21.0079    0.0000 </r>
       <r>   23.6731    0.0000 </r>
       <r>   27.4000    0.0000 </r>
       <r>   29.4690    0.0000 </r>
       <r>   31.7282    0.0000 </r>
       <r>   33.2624    0.0000 </r>
       <r>   34.3349    0.0000 </r>
       <r>   37.5336    0.0000 </r>
      </set>
      <set comment="kpoint 39">
       <r>  -36.0339    1.0000 </r>
       <r>  -36.0040    1.0000 </r>
       <r>  -35.5721    1.0000 </r>
       <r>  -35.5103    1.0000 </r>
       <r>  -35.3849    1.0000 </r>
       <r>  -35.1575    1.0000 </r>
       <r>    9.0907    1.0000 </r>
       <r>    9.6148    1.0000 </r>
       <r>   10.4445    1.0000 </r>
       <r>   10.9509    1.0000 </r>
       <r>   12.3632    1.0000 </r>
       <r>   12.4386    1.0000 </r>
       <r>   13.5251    1.0000 </r>
       <r>   15.4965    1.0000 </r>
       <r>   16.7053    1.0000 </r>
       <r>   18.2199    1.0000 </r>
       <r>   19.3179    0.0000 </r>
       <r>   22.8062    0.0000 </r>
       <r>   29.2334    0.0000 </r>
       <r>   32.2353    0.0000 </r>
       <r>   32.9265    0.0000 </r>
       <r>   35.0956    0.0000 </r>
       <r>   36.8768    0.0000 </r>
       <r>   38.2866    0.0000 </r>
      </set>
      <set comment="kpoint 40">
       <r>  -36.1890    1.0000 </r>
       <r>  -36.1223    1.0000 </r>
       <r>  -35.6800    1.0000 </r>
       <r>  -35.5666    1.0000 </r>
       <r>  -35.4263    1.0000 </r>
       <r>  -35.1995    1.0000 </r>
       <r>    8.9727    1.0000 </r>
       <r>    9.9716    1.0000 </r>
       <r>   10.0428    1.0000 </r>
       <r>   11.1877    1.0000 </r>
       <r>   12.1521    1.0000 </r>
       <r>   13.2718    1.0000 </r>
       <r>   13.9453    1.0000 </r>
       <r>   16.1252    1.0000 </r>
       <r>   16.6424    1.0000 </r>
       <r>   18.9588    0.0000 </r>
       <r>   21.8044    0.0000 </r>
       <r>   24.9484    0.0000 </r>
       <r>   27.5065    0.0000 </r>
       <r>   29.7548    0.0000 </r>
       <r>   32.0829    0.0000 </r>
       <r>   34.4117    0.0000 </r>
       <r>   34.7812    0.0000 </r>
       <r>   37.3324    0.0000 </r>
      </set>
      <set comment="kpoint 41">
       <r>  -36.2534    1.0000 </r>
       <r>  -36.1512    1.0000 </r>
       <r>  -35.7555    1.0000 </r>
       <r>  -35.6077    1.0000 </r>
       <r>  -35.3808    1.0000 </r>
       <r>  -35.2340    1.0000 </r>
       <r>    8.7885    1.0000 </r>
       <r>    9.7560    1.0000 </r>
       <r>   10.5881    1.0000 </r>
       <r>   10.9145    1.0000 </r>
       <r>   11.7128    1.0000 </r>
       <r>   13.9373    1.0000 </r>
       <r>   14.5926    1.0000 </r>
       <r>   16.2436    1.0000 </r>
       <r>   17.4276    1.0000 </r>
       <r>   18.4783    0.0204 </r>
       <r>   23.5813    0.0000 </r>
       <r>   24.3970    0.0000 </r>
       <r>   28.1538    0.0000 </r>
       <r>   29.0381    0.0000 </r>
       <r>   30.0978    0.0000 </r>
       <r>   34.2860    0.0000 </r>
       <r>   35.3898    0.0000 </r>
       <r>   35.9632    0.0000 </r>
      </set>
      <set comment="kpoint 42">
       <r>  -36.1220    1.0000 </r>
       <r>  -36.0726    1.0000 </r>
       <r>  -35.8980    1.0000 </r>
       <r>  -35.7728    1.0000 </r>
       <r>  -35.3468    1.0000 </r>
       <r>  -35.2550    1.0000 </r>
       <r>    9.5323    1.0000 </r>
       <r>   10.1384    1.0000 </r>
       <r>   10.7858    1.0000 </r>
       <r>   11.0307    1.0000 </r>
       <r>   12.1901    1.0000 </r>
       <r>   12.6976    1.0000 </r>
       <r>   14.0081    1.0000 </r>
       <r>   15.8861    1.0000 </r>
       <r>   17.1392    1.0000 </r>
       <r>   18.2690    0.9999 </r>
       <r>   24.0073    0.0000 </r>
       <r>   25.2544    0.0000 </r>
       <r>   27.5180    0.0000 </r>
       <r>   28.9155    0.0000 </r>
       <r>   31.8848    0.0000 </r>
       <r>   32.7671    0.0000 </r>
       <r>   35.8797    0.0000 </r>
       <r>   37.7154    0.0000 </r>
      </set>
      <set comment="kpoint 43">
       <r>  -35.7776    1.0000 </r>
       <r>  -35.3534    1.0000 </r>
       <r>  -35.1290    1.0000 </r>
       <r>  -35.1290    1.0000 </r>
       <r>  -35.0810    1.0000 </r>
       <r>  -35.0810    1.0000 </r>
       <r>    6.2242    1.0000 </r>
       <r>    7.3997    1.0000 </r>
       <r>   11.5716    1.0000 </r>
       <r>   12.5787    1.0000 </r>
       <r>   12.5787    1.0000 </r>
       <r>   12.7471    1.0000 </r>
       <r>   12.8487    1.0000 </r>
       <r>   12.8487    1.0000 </r>
       <r>   16.5044    1.0000 </r>
       <r>   16.5044    1.0000 </r>
       <r>   17.5546    1.0000 </r>
       <r>   17.5546    1.0000 </r>
       <r>   30.9762    0.0000 </r>
       <r>   31.3957    0.0000 </r>
       <r>   33.3756    0.0000 </r>
       <r>   35.8557    0.0000 </r>
       <r>   39.5453    0.0000 </r>
       <r>   39.5453    0.0000 </r>
      </set>
      <set comment="kpoint 44">
       <r>  -35.7656    1.0000 </r>
       <r>  -35.3863    1.0000 </r>
       <r>  -35.2336    1.0000 </r>
       <r>  -35.1605    1.0000 </r>
       <r>  -35.1587    1.0000 </r>
       <r>  -35.1065    1.0000 </r>
       <r>    6.7072    1.0000 </r>
       <r>    7.9174    1.0000 </r>
       <r>   11.5054    1.0000 </r>
       <r>   11.8326    1.0000 </r>
       <r>   12.2512    1.0000 </r>
       <r>   12.9700    1.0000 </r>
       <r>   12.9991    1.0000 </r>
       <r>   13.2459    1.0000 </r>
       <r>   16.3386    1.0000 </r>
       <r>   16.4220    1.0000 </r>
       <r>   17.5278    1.0000 </r>
       <r>   17.9870    1.0000 </r>
       <r>   31.0286    0.0000 </r>
       <r>   32.2779    0.0000 </r>
       <r>   34.2889    0.0000 </r>
       <r>   36.4574    0.0000 </r>
       <r>   38.5825    0.0000 </r>
       <r>   39.6778    0.0000 </r>
      </set>
      <set comment="kpoint 45">
       <r>  -35.7874    1.0000 </r>
       <r>  -35.6052    1.0000 </r>
       <r>  -35.4449    1.0000 </r>
       <r>  -35.2366    1.0000 </r>
       <r>  -35.2335    1.0000 </r>
       <r>  -35.1738    1.0000 </r>
       <r>    7.7715    1.0000 </r>
       <r>    8.9976    1.0000 </r>
       <r>   10.7362    1.0000 </r>
       <r>   11.2628    1.0000 </r>
       <r>   11.9149    1.0000 </r>
       <r>   12.8049    1.0000 </r>
       <r>   13.9556    1.0000 </r>
       <r>   14.3319    1.0000 </r>
       <r>   16.1173    1.0000 </r>
       <r>   16.4242    1.0000 </r>
       <r>   17.4529    1.0000 </r>
       <r>   18.8524    0.0000 </r>
       <r>   30.9077    0.0000 </r>
       <r>   33.9854    0.0000 </r>
       <r>   35.9057    0.0000 </r>
       <r>   36.4692    0.0000 </r>
       <r>   37.7944    0.0000 </r>
       <r>   39.4187    0.0000 </r>
      </set>
      <set comment="kpoint 46">
       <r>  -36.0250    1.0000 </r>
       <r>  -35.9503    1.0000 </r>
       <r>  -35.4817    1.0000 </r>
       <r>  -35.3304    1.0000 </r>
       <r>  -35.2571    1.0000 </r>
       <r>  -35.2382    1.0000 </r>
       <r>    8.1873    1.0000 </r>
       <r>    8.9432    1.0000 </r>
       <r>   10.1805    1.0000 </r>
       <r>   10.7104    1.0000 </r>
       <r>   13.1569    1.0000 </r>
       <r>   13.9605    1.0000 </r>
       <r>   14.5335    1.0000 </r>
       <r>   15.6770    1.0000 </r>
       <r>   16.8150    1.0000 </r>
       <r>   16.8287    1.0000 </r>
       <r>   17.6059    1.0000 </r>
       <r>   19.7015    0.0000 </r>
       <r>   30.1295    0.0000 </r>
       <r>   33.4159    0.0000 </r>
       <r>   34.5901    0.0000 </r>
       <r>   36.6809    0.0000 </r>
       <r>   38.1934    0.0000 </r>
       <r>   38.2723    0.0000 </r>
      </set>
      <set comment="kpoint 47">
       <r>  -36.2918    1.0000 </r>
       <r>  -36.2288    1.0000 </r>
       <r>  -35.4196    1.0000 </r>
       <r>  -35.4049    1.0000 </r>
       <r>  -35.3248    1.0000 </r>
       <r>  -35.2432    1.0000 </r>
       <r>    7.8717    1.0000 </r>
       <r>    8.3669    1.0000 </r>
       <r>    9.9163    1.0000 </r>
       <r>   10.1282    1.0000 </r>
       <r>   14.4127    1.0000 </r>
       <r>   14.6928    1.0000 </r>
       <r>   16.2403    1.0000 </r>
       <r>   16.5960    1.0000 </r>
       <r>   17.9618    1.0000 </r>
       <r>   18.3550    0.9254 </r>
       <r>   18.6089    0.0000 </r>
       <r>   20.6589    0.0000 </r>
       <r>   28.5637    0.0000 </r>
       <r>   30.3568    0.0000 </r>
       <r>   33.5449    0.0000 </r>
       <r>   35.0055    0.0000 </r>
       <r>   36.0260    0.0000 </r>
       <r>   38.3834    0.0000 </r>
      </set>
      <set comment="kpoint 48">
       <r>  -36.3964    1.0000 </r>
       <r>  -36.3336    1.0000 </r>
       <r>  -35.4332    1.0000 </r>
       <r>  -35.3841    1.0000 </r>
       <r>  -35.3504    1.0000 </r>
       <r>  -35.2509    1.0000 </r>
       <r>    7.6929    1.0000 </r>
       <r>    8.1324    1.0000 </r>
       <r>    9.8170    1.0000 </r>
       <r>    9.8977    1.0000 </r>
       <r>   14.3231    1.0000 </r>
       <r>   15.1206    1.0000 </r>
       <r>   16.2853    1.0000 </r>
       <r>   18.2577    1.0000 </r>
       <r>   18.7190    0.0000 </r>
       <r>   19.1555    0.0000 </r>
       <r>   19.2818    0.0000 </r>
       <r>   21.6264    0.0000 </r>
       <r>   27.6560    0.0000 </r>
       <r>   27.9006    0.0000 </r>
       <r>   33.5250    0.0000 </r>
       <r>   33.6108    0.0000 </r>
       <r>   34.9186    0.0000 </r>
       <r>   38.0156    0.0000 </r>
      </set>
      <set comment="kpoint 49">
       <r>  -35.7648    1.0000 </r>
       <r>  -35.5192    1.0000 </r>
       <r>  -35.3849    1.0000 </r>
       <r>  -35.2507    1.0000 </r>
       <r>  -35.1912    1.0000 </r>
       <r>  -35.1656    1.0000 </r>
       <r>    7.5270    1.0000 </r>
       <r>    8.8185    1.0000 </r>
       <r>   10.9663    1.0000 </r>
       <r>   11.3870    1.0000 </r>
       <r>   11.7550    1.0000 </r>
       <r>   12.6620    1.0000 </r>
       <r>   13.7394    1.0000 </r>
       <r>   14.0526    1.0000 </r>
       <r>   16.1661    1.0000 </r>
       <r>   16.4204    1.0000 </r>
       <r>   17.4060    1.0000 </r>
       <r>   18.6767    0.0000 </r>
       <r>   31.0532    0.0000 </r>
       <r>   33.6238    0.0000 </r>
       <r>   35.6781    0.0000 </r>
       <r>   37.2865    0.0000 </r>
       <r>   37.6174    0.0000 </r>
       <r>   37.6955    0.0000 </r>
      </set>
      <set comment="kpoint 50">
       <r>  -35.8946    1.0000 </r>
       <r>  -35.8096    1.0000 </r>
       <r>  -35.4880    1.0000 </r>
       <r>  -35.3410    1.0000 </r>
       <r>  -35.2658    1.0000 </r>
       <r>  -35.2137    1.0000 </r>
       <r>    8.4422    1.0000 </r>
       <r>    9.5638    1.0000 </r>
       <r>   10.2861    1.0000 </r>
       <r>   11.1772    1.0000 </r>
       <r>   11.7511    1.0000 </r>
       <r>   12.5622    1.0000 </r>
       <r>   14.3618    1.0000 </r>
       <r>   15.2617    1.0000 </r>
       <r>   16.6766    1.0000 </r>
       <r>   16.7723    1.0000 </r>
       <r>   17.5307    1.0000 </r>
       <r>   19.5826    0.0000 </r>
       <r>   30.8415    0.0000 </r>
       <r>   34.2448    0.0000 </r>
       <r>   35.5180    0.0000 </r>
       <r>   36.6917    0.0000 </r>
       <r>   37.2066    0.0000 </r>
       <r>   37.9046    0.0000 </r>
      </set>
      <set comment="kpoint 51">
       <r>  -36.1561    1.0000 </r>
       <r>  -36.0998    1.0000 </r>
       <r>  -35.4846    1.0000 </r>
       <r>  -35.4163    1.0000 </r>
       <r>  -35.3515    1.0000 </r>
       <r>  -35.2198    1.0000 </r>
       <r>    8.3823    1.0000 </r>
       <r>    9.0295    1.0000 </r>
       <r>   10.0474    1.0000 </r>
       <r>   10.6719    1.0000 </r>
       <r>   13.2190    1.0000 </r>
       <r>   13.9244    1.0000 </r>
       <r>   14.5618    1.0000 </r>
       <r>   15.7537    1.0000 </r>
       <r>   17.0891    1.0000 </r>
       <r>   18.4901    0.0087 </r>
       <r>   18.9837    0.0000 </r>
       <r>   20.6811    0.0000 </r>
       <r>   29.6480    0.0000 </r>
       <r>   32.2310    0.0000 </r>
       <r>   33.8799    0.0000 </r>
       <r>   35.4795    0.0000 </r>
       <r>   36.2277    0.0000 </r>
       <r>   37.2912    0.0000 </r>
      </set>
      <set comment="kpoint 52">
       <r>  -36.3349    1.0000 </r>
       <r>  -36.2749    1.0000 </r>
       <r>  -35.5281    1.0000 </r>
       <r>  -35.4407    1.0000 </r>
       <r>  -35.3521    1.0000 </r>
       <r>  -35.2303    1.0000 </r>
       <r>    8.0650    1.0000 </r>
       <r>    8.6253    1.0000 </r>
       <r>    9.9332    1.0000 </r>
       <r>   10.2722    1.0000 </r>
       <r>   13.3019    1.0000 </r>
       <r>   15.2671    1.0000 </r>
       <r>   15.5183    1.0000 </r>
       <r>   16.4983    1.0000 </r>
       <r>   17.9074    1.0000 </r>
       <r>   18.9141    0.0000 </r>
       <r>   20.9090    0.0000 </r>
       <r>   22.4900    0.0000 </r>
       <r>   27.7809    0.0000 </r>
       <r>   28.9778    0.0000 </r>
       <r>   33.2837    0.0000 </r>
       <r>   34.1016    0.0000 </r>
       <r>   34.8582    0.0000 </r>
       <r>   36.6207    0.0000 </r>
      </set>
      <set comment="kpoint 53">
       <r>  -36.0544    1.0000 </r>
       <r>  -36.0286    1.0000 </r>
       <r>  -35.5059    1.0000 </r>
       <r>  -35.5000    1.0000 </r>
       <r>  -35.3627    1.0000 </r>
       <r>  -35.2093    1.0000 </r>
       <r>    9.1009    1.0000 </r>
       <r>    9.3892    1.0000 </r>
       <r>   10.7277    1.0000 </r>
       <r>   11.2172    1.0000 </r>
       <r>   12.0776    1.0000 </r>
       <r>   12.1805    1.0000 </r>
       <r>   13.8033    1.0000 </r>
       <r>   15.4072    1.0000 </r>
       <r>   17.0727    1.0000 </r>
       <r>   18.5866    0.0000 </r>
       <r>   19.3324    0.0000 </r>
       <r>   20.8569    0.0000 </r>
       <r>   30.6159    0.0000 </r>
       <r>   32.7911    0.0000 </r>
       <r>   34.2423    0.0000 </r>
       <r>   35.4988    0.0000 </r>
       <r>   35.7620    0.0000 </r>
       <r>   36.8797    0.0000 </r>
      </set>
      <set comment="kpoint 54">
       <r>  -36.1964    1.0000 </r>
       <r>  -36.1608    1.0000 </r>
       <r>  -35.6671    1.0000 </r>
       <r>  -35.6015    1.0000 </r>
       <r>  -35.3373    1.0000 </r>
       <r>  -35.2167    1.0000 </r>
       <r>    8.9455    1.0000 </r>
       <r>    9.5335    1.0000 </r>
       <r>   10.3456    1.0000 </r>
       <r>   11.2874    1.0000 </r>
       <r>   12.1810    1.0000 </r>
       <r>   13.2663    1.0000 </r>
       <r>   14.2020    1.0000 </r>
       <r>   15.2129    1.0000 </r>
       <r>   17.4594    1.0000 </r>
       <r>   19.0728    0.0000 </r>
       <r>   21.9867    0.0000 </r>
       <r>   23.3986    0.0000 </r>
       <r>   28.4877    0.0000 </r>
       <r>   30.3155    0.0000 </r>
       <r>   32.4327    0.0000 </r>
       <r>   34.2577    0.0000 </r>
       <r>   34.9876    0.0000 </r>
       <r>   36.5985    0.0000 </r>
      </set>
      <set comment="kpoint 55">
       <r>  -36.2534    1.0000 </r>
       <r>  -36.1991    1.0000 </r>
       <r>  -35.7363    1.0000 </r>
       <r>  -35.6534    1.0000 </r>
       <r>  -35.3061    1.0000 </r>
       <r>  -35.2286    1.0000 </r>
       <r>    8.8171    1.0000 </r>
       <r>    9.6256    1.0000 </r>
       <r>   10.2531    1.0000 </r>
       <r>   11.1250    1.0000 </r>
       <r>   11.8939    1.0000 </r>
       <r>   13.7605    1.0000 </r>
       <r>   15.0413    1.0000 </r>
       <r>   15.5271    1.0000 </r>
       <r>   17.7786    1.0000 </r>
       <r>   18.5572    0.0000 </r>
       <r>   23.9514    0.0000 </r>
       <r>   24.4517    0.0000 </r>
       <r>   27.9029    0.0000 </r>
       <r>   28.2509    0.0000 </r>
       <r>   30.9818    0.0000 </r>
       <r>   33.7886    0.0000 </r>
       <r>   35.8912    0.0000 </r>
       <r>   36.0543    0.0000 </r>
      </set>
      <set comment="kpoint 56">
       <r>  -36.1251    1.0000 </r>
       <r>  -36.1083    1.0000 </r>
       <r>  -35.8928    1.0000 </r>
       <r>  -35.8170    1.0000 </r>
       <r>  -35.2832    1.0000 </r>
       <r>  -35.2355    1.0000 </r>
       <r>    9.6638    1.0000 </r>
       <r>    9.8646    1.0000 </r>
       <r>   10.9093    1.0000 </r>
       <r>   11.0359    1.0000 </r>
       <r>   12.1578    1.0000 </r>
       <r>   12.6971    1.0000 </r>
       <r>   14.0764    1.0000 </r>
[...]
       </set>
       <set comment="band 12">
        <r>  0.0001  0.0001  0.0004  0.0000  0.0003  0.0280  0.0011  0.0328  0.0002 </r>
        <r>  0.0447  0.0299  0.0000  0.0105  0.1290  0.0001  0.4249  0.0001  0.0625 </r>
       </set>
       <set comment="band 13">
        <r>  0.0056  0.0015  0.0001  0.0006  0.0518  0.0559  0.0004  0.1388  0.0402 </r>
        <r>  0.0021  0.0005  0.0004  0.0002  0.0193  0.1505  0.0002  0.3736  0.0149 </r>
       </set>
       <set comment="band 14">
        <r>  0.0021  0.0005  0.0004  0.0002  0.0193  0.1505  0.0002  0.3736  0.0149 </r>
        <r>  0.0056  0.0015  0.0001  0.0006  0.0518  0.0559  0.0004  0.1388  0.0402 </r>
       </set>
       <set comment="band 15">
        <r>  0.0046  0.0004  0.0052  0.0001  0.0443  0.1482  0.1229  0.0972  0.0167 </r>
        <r>  0.0090  0.0008  0.0027  0.0003  0.0860  0.0763  0.2387  0.0500  0.0324 </r>
       </set>
       <set comment="band 16">
        <r>  0.0090  0.0008  0.0027  0.0003  0.0860  0.0763  0.2387  0.0500  0.0324 </r>
        <r>  0.0046  0.0004  0.0052  0.0001  0.0443  0.1482  0.1229  0.0972  0.0167 </r>
       </set>
       <set comment="band 17">
        <r>  0.0823  0.0391  0.0020  0.0134  0.3148  0.0089  0.0003  0.0039  0.1111 </r>
        <r>  0.0088  0.0042  0.0183  0.0014  0.0339  0.0824  0.0000  0.0363  0.0120 </r>
       </set>
       <set comment="band 18">
        <r>  0.0088  0.0042  0.0183  0.0014  0.0339  0.0824  0.0000  0.0363  0.0120 </r>
        <r>  0.0823  0.0391  0.0020  0.0134  0.3148  0.0089  0.0003  0.0039  0.1111 </r>
       </set>
       <set comment="band 19">
        <r>  0.0005  0.0001  0.0525  0.0000  0.0000  0.0264  0.0000  0.0750  0.0000 </r>
        <r>  0.2571  0.0341  0.0001  0.0122  0.0144  0.0001  0.0025  0.0001  0.0049 </r>
       </set>
       <set comment="band 20">
        <r>  0.2571  0.0341  0.0001  0.0122  0.0144  0.0001  0.0025  0.0001  0.0049 </r>
        <r>  0.0005  0.0001  0.0525  0.0000  0.0000  0.0264  0.0000  0.0750  0.0000 </r>
       </set>
       <set comment="band 21">
        <r>  0.0002  0.0658  0.0030  0.0742  0.0285  0.0002  0.0778  0.0005  0.0854 </r>
        <r>  0.0000  0.0017  0.1183  0.0019  0.0007  0.0090  0.0020  0.0209  0.0022 </r>
       </set>
       <set comment="band 22">
        <r>  0.0000  0.0017  0.1183  0.0019  0.0007  0.0090  0.0020  0.0209  0.0022 </r>
        <r>  0.0002  0.0658  0.0030  0.0742  0.0285  0.0002  0.0778  0.0005  0.0854 </r>
       </set>
       <set comment="band 23">
        <r>  0.0070  0.0289  0.0045  0.0188  0.0120  0.0569  0.0173  0.0205  0.0311 </r>
        <r>  0.0110  0.0456  0.0028  0.0296  0.0190  0.0361  0.0272  0.0130  0.0490 </r>
       </set>
       <set comment="band 24">
        <r>  0.0110  0.0456  0.0028  0.0296  0.0190  0.0361  0.0272  0.0130  0.0490 </r>
        <r>  0.0070  0.0289  0.0045  0.0188  0.0120  0.0569  0.0173  0.0205  0.0311 </r>
       </set>
      </set>
      <set comment="kpoint 68">
       <set comment="band 1">
        <r>  0.0000  0.0097  0.0882  0.0091  0.0000  0.0000  0.0000  0.0000  0.0000 </r>
        <r>  0.0002  0.4476  0.0019  0.4200  0.0001  0.0000  0.0001  0.0000  0.0002 </r>
       </set>
       <set comment="band 2">
        <r>  0.0002  0.4476  0.0019  0.4200  0.0001  0.0000  0.0001  0.0000  0.0002 </r>
        <r>  0.0000  0.0097  0.0882  0.0091  0.0000  0.0000  0.0000  0.0000  0.0000 </r>
       </set>
       <set comment="band 3">
        <r>  0.0000  0.0881  0.0750  0.0942  0.0001  0.0000  0.0000  0.0000  0.0001 </r>
        <r>  0.0000  0.3445  0.0192  0.3680  0.0002  0.0000  0.0000  0.0000  0.0004 </r>
       </set>
       <set comment="band 4">
        <r>  0.0000  0.3445  0.0192  0.3680  0.0002  0.0000  0.0000  0.0000  0.0004 </r>
        <r>  0.0000  0.0881  0.0750  0.0942  0.0001  0.0000  0.0000  0.0000  0.0001 </r>
       </set>
       <set comment="band 5">
        <r>  0.0000  0.0136  0.6906  0.0135  0.0000  0.0000  0.0000  0.0000  0.0000 </r>
        <r>  0.0000  0.0813  0.1156  0.0804  0.0000  0.0000  0.0000  0.0000  0.0000 </r>
       </set>
       <set comment="band 6">
        <r>  0.0000  0.0813  0.1156  0.0804  0.0000  0.0000  0.0000  0.0000  0.0000 </r>
        <r>  0.0000  0.0136  0.6906  0.0135  0.0000  0.0000  0.0000  0.0000  0.0000 </r>
       </set>
       <set comment="band 7">
        <r>  0.0662  0.0066  0.0005  0.0037  0.0685  0.0293  0.0648  0.0267  0.0374 </r>
        <r>  0.0102  0.0010  0.0031  0.0006  0.0106  0.1903  0.0100  0.1734  0.0058 </r>
       </set>
       <set comment="band 8">
        <r>  0.0102  0.0010  0.0031  0.0006  0.0106  0.1903  0.0100  0.1734  0.0058 </r>
        <r>  0.0662  0.0066  0.0005  0.0037  0.0685  0.0293  0.0648  0.0267  0.0374 </r>
       </set>
       <set comment="band 9">
        <r>  0.0109  0.0139  0.0002  0.0073  0.2752  0.0031  0.1292  0.0019  0.2049 </r>
        <r>  0.0006  0.0007  0.0045  0.0004  0.0141  0.0598  0.0066  0.0380  0.0105 </r>
       </set>
       <set comment="band 10">
        <r>  0.0006  0.0007  0.0045  0.0004  0.0141  0.0598  0.0066  0.0380  0.0105 </r>
        <r>  0.0109  0.0139  0.0002  0.0073  0.2752  0.0031  0.1292  0.0019  0.2049 </r>
       </set>
       <set comment="band 11">
        <r>  0.0024  0.0021  0.0073  0.0037  0.0071  0.1157  0.0133  0.1546  0.0152 </r>
        <r>  0.0195  0.0172  0.0009  0.0300  0.0583  0.0142  0.1084  0.0190  0.1237 </r>
       </set>
       <set comment="band 12">
        <r>  0.0195  0.0172  0.0009  0.0300  0.0583  0.0142  0.1084  0.0190  0.1237 </r>
        <r>  0.0024  0.0021  0.0073  0.0037  0.0071  0.1157  0.0133  0.1546  0.0152 </r>
       </set>
       <set comment="band 13">
        <r>  0.0226  0.0042  0.0001  0.0112  0.0780  0.0115  0.0463  0.0148  0.2301 </r>
        <r>  0.0015  0.0003  0.0010  0.0007  0.0052  0.1725  0.0031  0.2219  0.0153 </r>
       </set>
       <set comment="band 14">
        <r>  0.0015  0.0003  0.0010  0.0007  0.0052  0.1725  0.0031  0.2219  0.0153 </r>
        <r>  0.0226  0.0042  0.0001  0.0112  0.0780  0.0115  0.0463  0.0148  0.2301 </r>
       </set>
       <set comment="band 15">
        <r>  0.0058  0.0046  0.0003  0.0014  0.0757  0.0085  0.4629  0.0057  0.0335 </r>
        <r>  0.0003  0.0002  0.0057  0.0001  0.0035  0.1811  0.0217  0.1208  0.0016 </r>
       </set>
       <set comment="band 16">
        <r>  0.0003  0.0002  0.0057  0.0001  0.0035  0.1811  0.0217  0.1208  0.0016 </r>
        <r>  0.0058  0.0046  0.0003  0.0014  0.0757  0.0085  0.4629  0.0057  0.0335 </r>
       </set>
       <set comment="band 17">
        <r>  0.0795  0.0528  0.0013  0.0358  0.2718  0.0018  0.0109  0.0007  0.1418 </r>
        <r>  0.0032  0.0021  0.0336  0.0014  0.0109  0.0449  0.0004  0.0186  0.0057 </r>
       </set>
       <set comment="band 18">
        <r>  0.0032  0.0021  0.0336  0.0014  0.0109  0.0449  0.0004  0.0186  0.0057 </r>
        <r>  0.0795  0.0528  0.0013  0.0358  0.2718  0.0018  0.0109  0.0007  0.1418 </r>
       </set>
       <set comment="band 19">
        <r>  0.0280  0.0025  0.0158  0.0031  0.0022  0.0199  0.0020  0.1022  0.0013 </r>
        <r>  0.3273  0.0286  0.0014  0.0366  0.0259  0.0017  0.0234  0.0088  0.0151 </r>
       </set>
       <set comment="band 20">
        <r>  0.3273  0.0286  0.0014  0.0366  0.0259  0.0017  0.0234  0.0088  0.0151 </r>
        <r>  0.0280  0.0025  0.0158  0.0031  0.0022  0.0199  0.0020  0.1022  0.0013 </r>
       </set>
       <set comment="band 21">
        <r>  0.0005  0.0023  0.0775  0.0017  0.0013  0.0568  0.0002  0.0147  0.0030 </r>
        <r>  0.0208  0.0904  0.0020  0.0677  0.0492  0.0015  0.0097  0.0004  0.1172 </r>
       </set>
       <set comment="band 22">
        <r>  0.0208  0.0904  0.0020  0.0677  0.0492  0.0015  0.0097  0.0004  0.1172 </r>
        <r>  0.0005  0.0023  0.0775  0.0017  0.0013  0.0568  0.0002  0.0147  0.0030 </r>
       </set>
       <set comment="band 23">
        <r>  0.0003  0.0031  0.0580  0.0025  0.0012  0.0513  0.0011  0.0419  0.0020 </r>
        <r>  0.0036  0.0404  0.0044  0.0327  0.0158  0.0039  0.0149  0.0032  0.0261 </r>
       </set>
       <set comment="band 24">
        <r>  0.0036  0.0404  0.0044  0.0327  0.0158  0.0039  0.0149  0.0032  0.0261 </r>
        <r>  0.0003  0.0031  0.0580  0.0025  0.0012  0.0513  0.0011  0.0419  0.0020 </r>
       </set>
      </set>
      <set comment="kpoint 69">
       <set comment="band 1">
        <r>  0.0000  0.0036  0.0797  0.0106  0.0000  0.0000  0.0000  0.0000  0.0000 </r>
        <r>  0.0000  0.2226  0.0013  0.6579  0.0001  0.0000  0.0000  0.0000  0.0003 </r>
       </set>
       <set comment="band 2">
        <r>  0.0000  0.2226  0.0013  0.6579  0.0001  0.0000  0.0000  0.0000  0.0003 </r>
        <r>  0.0000  0.0036  0.0797  0.0106  0.0000  0.0000  0.0000  0.0000  0.0000 </r>
       </set>
       <set comment="band 3">
        <r>  0.0000  0.0256  0.0764  0.0091  0.0000  0.0000  0.0000  0.0000  0.0000 </r>
        <r>  0.0000  0.6435  0.0030  0.2302  0.0005  0.0000  0.0000  0.0000  0.0002 </r>
       </set>
       <set comment="band 4">
        <r>  0.0000  0.6435  0.0030  0.2302  0.0005  0.0000  0.0000  0.0000  0.0002 </r>
        <r>  0.0000  0.0256  0.0764  0.0091  0.0000  0.0000  0.0000  0.0000  0.0000 </r>
       </set>
       <set comment="band 5">
        <r>  0.0000  0.0868  0.0416  0.0696  0.0000  0.0000  0.0000  0.0000  0.0000 </r>
        <r>  0.0000  0.0046  0.7891  0.0037  0.0000  0.0000  0.0000  0.0000  0.0000 </r>
       </set>
       <set comment="band 6">
        <r>  0.0000  0.0046  0.7891  0.0037  0.0000  0.0000  0.0000  0.0000  0.0000 </r>
        <r>  0.0000  0.0868  0.0416  0.0696  0.0000  0.0000  0.0000  0.0000  0.0000 </r>
       </set>
       <set comment="band 7">
        <r>  0.0648  0.0069  0.0001  0.0041  0.0998  0.0116  0.0573  0.0336  0.0346 </r>
        <r>  0.0079  0.0008  0.0011  0.0005  0.0122  0.0949  0.0070  0.2751  0.0042 </r>
       </set>
       <set comment="band 8">
        <r>  0.0079  0.0008  0.0011  0.0005  0.0122  0.0949  0.0070  0.2751  0.0042 </r>
        <r>  0.0648  0.0069  0.0001  0.0041  0.0998  0.0116  0.0573  0.0336  0.0346 </r>
       </set>
       <set comment="band 9">
        <r>  0.0000  0.0146  0.0001  0.0051  0.3026  0.0063  0.1699  0.0058  0.1014 </r>
        <r>  0.0000  0.0014  0.0013  0.0005  0.0288  0.0659  0.0162  0.0605  0.0097 </r>
       </set>
       <set comment="band 10">
        <r>  0.0000  0.0014  0.0013  0.0005  0.0288  0.0659  0.0162  0.0605  0.0097 </r>
        <r>  0.0000  0.0146  0.0001  0.0051  0.3026  0.0063  0.1699  0.0058  0.1014 </r>
       </set>
       <set comment="band 11">
        <r>  0.0122  0.0067  0.0024  0.0202  0.0488  0.0944  0.0111  0.0430  0.0557 </r>
        <r>  0.0046  0.0025  0.0064  0.0076  0.0183  0.2526  0.0041  0.1151  0.0208 </r>
       </set>
       <set comment="band 12">
        <r>  0.0046  0.0025  0.0064  0.0076  0.0183  0.2526  0.0041  0.1151  0.0208 </r>
        <r>  0.0122  0.0067  0.0024  0.0202  0.0488  0.0944  0.0111  0.0430  0.0557 </r>
       </set>
       <set comment="band 13">
        <r>  0.0000  0.0015  0.0046  0.0045  0.0165  0.1192  0.0009  0.0593  0.0459 </r>
        <r>  0.0004  0.0117  0.0006  0.0340  0.1240  0.0158  0.0070  0.0079  0.3461 </r>
       </set>
       <set comment="band 14">
        <r>  0.0004  0.0117  0.0006  0.0340  0.1240  0.0158  0.0070  0.0079  0.3461 </r>
        <r>  0.0000  0.0015  0.0046  0.0045  0.0165  0.1192  0.0009  0.0593  0.0459 </r>
       </set>
       <set comment="band 15">
        <r>  0.0000  0.0004  0.0015  0.0001  0.0075  0.0940  0.1380  0.1198  0.0063 </r>
        <r>  0.0000  0.0013  0.0005  0.0005  0.0251  0.0280  0.4637  0.0357  0.0212 </r>
       </set>
       <set comment="band 16">
        <r>  0.0000  0.0013  0.0005  0.0005  0.0251  0.0280  0.4637  0.0357  0.0212 </r>
        <r>  0.0000  0.0004  0.0015  0.0001  0.0075  0.0940  0.1380  0.1198  0.0063 </r>
       </set>
       <set comment="band 17">
        <r>  0.0205  0.0295  0.0087  0.0836  0.0868  0.0035  0.0162  0.0023  0.2054 </r>
        <r>  0.0035  0.0051  0.0502  0.0144  0.0150  0.0204  0.0028  0.0134  0.0354 </r>
       </set>
       <set comment="band 18">
        <r>  0.0035  0.0051  0.0502  0.0144  0.0150  0.0204  0.0028  0.0134  0.0354 </r>
        <r>  0.0205  0.0295  0.0087  0.0836  0.0868  0.0035  0.0162  0.0023  0.2054 </r>
       </set>
       <set comment="band 19">
        <r>  0.3633  0.0052  0.0003  0.0153  0.0541  0.0109  0.0159  0.0213  0.0315 </r>
        <r>  0.0901  0.0013  0.0011  0.0038  0.0134  0.0439  0.0040  0.0858  0.0078 </r>
       </set>
       <set comment="band 20">
        <r>  0.0901  0.0013  0.0011  0.0038  0.0134  0.0439  0.0040  0.0858  0.0078 </r>
        <r>  0.3633  0.0052  0.0003  0.0153  0.0541  0.0109  0.0159  0.0213  0.0315 </r>
       </set>
       <set comment="band 21">
        <r>  0.0211  0.0997  0.0117  0.0403  0.0845  0.0156  0.0000  0.0066  0.0331 </r>
        <r>  0.0062  0.0294  0.0395  0.0119  0.0249  0.0528  0.0000  0.0224  0.0098 </r>
       </set>
       <set comment="band 22">
        <r>  0.0062  0.0294  0.0395  0.0119  0.0249  0.0528  0.0000  0.0224  0.0098 </r>
        <r>  0.0211  0.0997  0.0117  0.0403  0.0845  0.0156  0.0000  0.0066  0.0331 </r>
       </set>
       <set comment="band 23">
        <r>  0.0004  0.0007  0.0706  0.0021  0.0010  0.0350  0.0004  0.0460  0.0010 </r>
        <r>  0.0095  0.0186  0.0028  0.0521  0.0252  0.0014  0.0090  0.0018  0.0257 </r>
       </set>
       <set comment="band 24">
        <r>  0.0095  0.0186  0.0028  0.0521  0.0252  0.0014  0.0090  0.0018  0.0257 </r>
        <r>  0.0004  0.0007  0.0706  0.0021  0.0010  0.0350  0.0004  0.0460  0.0010 </r>
       </set>
      </set>
      <set comment="kpoint 70">
       <set comment="band 1">
        <r>  0.0000  0.4471  0.0307  0.1666  0.0003  0.0000  0.0000  0.0000  0.0001 </r>
        <r>  0.0000  0.1904  0.0721  0.0709  0.0001  0.0000  0.0000  0.0000  0.0001 </r>
       </set>
       <set comment="band 2">
        <r>  0.0000  0.1904  0.0721  0.0709  0.0001  0.0000  0.0000  0.0000  0.0001 </r>
        <r>  0.0000  0.4471  0.0307  0.1666  0.0003  0.0000  0.0000  0.0000  0.0001 </r>
       </set>
       <set comment="band 3">
        <r>  0.0000  0.2387  0.0055  0.5860  0.0002  0.0000  0.0000  0.0000  0.0006 </r>
        <r>  0.0000  0.0332  0.0395  0.0814  0.0000  0.0000  0.0000  0.0000  0.0001 </r>
       </set>
       <set comment="band 4">
        <r>  0.0000  0.0332  0.0395  0.0814  0.0000  0.0000  0.0000  0.0000  0.0001 </r>
        <r>  0.0000  0.2387  0.0055  0.5860  0.0002  0.0000  0.0000  0.0000  0.0006 </r>
       </set>
       <set comment="band 5">
        <r>  0.0000  0.0468  0.3004  0.0511  0.0000  0.0000  0.0000  0.0000  0.0000 </r>
        <r>  0.0000  0.0259  0.5430  0.0283  0.0000  0.0000  0.0000  0.0000  0.0000 </r>
       </set>
       <set comment="band 6">
        <r>  0.0000  0.0259  0.5430  0.0283  0.0000  0.0000  0.0000  0.0000  0.0000 </r>
        <r>  0.0000  0.0468  0.3004  0.0511  0.0000  0.0000  0.0000  0.0000  0.0000 </r>
       </set>
       <set comment="band 7">
        <r>  0.0492  0.0027  0.0001  0.0031  0.0105  0.0610  0.1319  0.0264  0.0159 </r>
        <r>  0.0108  0.0006  0.0004  0.0007  0.0023  0.2769  0.0291  0.1198  0.0035 </r>
       </set>
       <set comment="band 8">
        <r>  0.0108  0.0006  0.0004  0.0007  0.0023  0.2769  0.0291  0.1198  0.0035 </r>
        <r>  0.0492  0.0027  0.0001  0.0031  0.0105  0.0610  0.1319  0.0264  0.0159 </r>
       </set>
       <set comment="band 9">
        <r>  0.0056  0.0132  0.0001  0.0242  0.0761  0.0063  0.0492  0.0164  0.1939 </r>
        <r>  0.0004  0.0010  0.0008  0.0018  0.0058  0.0835  0.0037  0.2157  0.0147 </r>
       </set>
       <set comment="band 10">
        <r>  0.0004  0.0010  0.0008  0.0018  0.0058  0.0835  0.0037  0.2157  0.0147 </r>
        <r>  0.0056  0.0132  0.0001  0.0242  0.0761  0.0063  0.0492  0.0164  0.1939 </r>
       </set>
       <set comment="band 11">
        <r>  0.0000  0.0001  0.0113  0.0001  0.0010  0.0407  0.0001  0.0668  0.0011 </r>
        <r>  0.0030  0.0359  0.0000  0.0221  0.2470  0.0002  0.0216  0.0003  0.2752 </r>
       </set>
       <set comment="band 12">
        <r>  0.0030  0.0359  0.0000  0.0221  0.2470  0.0002  0.0216  0.0003  0.2752 </r>
        <r>  0.0000  0.0001  0.0113  0.0001  0.0010  0.0407  0.0001  0.0668  0.0011 </r>
       </set>
       <set comment="band 13">
        <r>  0.0085  0.0130  0.0000  0.0051  0.2893  0.0012  0.0162  0.0017  0.1743 </r>
        <r>  0.0001  0.0001  0.0006  0.0000  0.0026  0.1363  0.0001  0.1941  0.0016 </r>
       </set>
       <set comment="band 14">
        <r>  0.0001  0.0001  0.0006  0.0000  0.0026  0.1363  0.0001  0.1941  0.0016 </r>
        <r>  0.0085  0.0130  0.0000  0.0051  0.2893  0.0012  0.0162  0.0017  0.1743 </r>
       </set>
       <set comment="band 15">
        <r>  0.0006  0.0006  0.0007  0.0002  0.0073  0.0967  0.2194  0.0790  0.0029 </r>
        <r>  0.0012  0.0011  0.0004  0.0004  0.0140  0.0503  0.4217  0.0411  0.0055 </r>
       </set>
       <set comment="band 16">
        <r>  0.0012  0.0011  0.0004  0.0004  0.0140  0.0503  0.4217  0.0411  0.0055 </r>
        <r>  0.0006  0.0006  0.0007  0.0002  0.0073  0.0967  0.2194  0.0790  0.0029 </r>
       </set>
       <set comment="band 17">
        <r>  0.0898  0.0749  0.0005  0.0318  0.2180  0.0003  0.0055  0.0001  0.0926 </r>
        <r>  0.0006  0.0005  0.0694  0.0002  0.0015  0.0363  0.0000  0.0121  0.0006 </r>
       </set>
       <set comment="band 18">
        <r>  0.0006  0.0005  0.0694  0.0002  0.0015  0.0363  0.0000  0.0121  0.0006 </r>
        <r>  0.0898  0.0749  0.0005  0.0318  0.2180  0.0003  0.0055  0.0001  0.0926 </r>
       </set>
       <set comment="band 19">
        <r>  0.0000  0.0000  0.0146  0.0000  0.0000  0.0704  0.0000  0.0939  0.0000 </r>
        <r>  0.4337  0.0288  0.0000  0.0125  0.0076  0.0000  0.0101  0.0000  0.0074 </r>
       </set>
       <set comment="band 20">
        <r>  0.4337  0.0288  0.0000  0.0125  0.0076  0.0000  0.0101  0.0000  0.0074 </r>
        <r>  0.0000  0.0000  0.0146  0.0000  0.0000  0.0704  0.0000  0.0939  0.0000 </r>
       </set>
       <set comment="band 21">
        <r>  0.0000  0.0631  0.0005  0.1147  0.0834  0.0009  0.0013  0.0009  0.1740 </r>
        <r>  0.0000  0.0010  0.0296  0.0018  0.0013  0.0586  0.0000  0.0597  0.0027 </r>
       </set>
       <set comment="band 22">
        <r>  0.0000  0.0010  0.0296  0.0018  0.0013  0.0586  0.0000  0.0597  0.0027 </r>
        <r>  0.0000  0.0631  0.0005  0.1147  0.0834  0.0009  0.0013  0.0009  0.1740 </r>
       </set>
       <set comment="band 23">
        <r>  0.0001  0.0076  0.0886  0.0029  0.0041  0.0336  0.0001  0.0320  0.0027 </r>
        <r>  0.0012  0.0616  0.0109  0.0232  0.0331  0.0041  0.0009  0.0039  0.0220 </r>
       </set>
       <set comment="band 24">
        <r>  0.0012  0.0616  0.0109  0.0232  0.0331  0.0041  0.0009  0.0039  0.0220 </r>
        <r>  0.0001  0.0076  0.0886  0.0029  0.0041  0.0336  0.0001  0.0320  0.0027 </r>
       </set>
      </set>
     </set>
    </set>
   </array>
  </projected>
 </calculation>
 <structure name="finalpos" >
  <crystal>
   <varray name="basis" >
    <v>       2.47767491       0.00000000       0.00000000 </v>
    <v>      -1.23883745       2.14572941       0.00000000 </v>
    <v>       0.00000000       0.00000000       4.29251404 </v>
   </varray>
   <i name="volume">     22.82080720 </i>
   <varray name="rec_basis" >
    <v>       0.40360420       0.23302099       0.00000000 </v>
    <v>       0.00000000       0.46604199       0.00000000 </v>
    <v>       0.00000000       0.00000000       0.23296371 </v>
   </varray>
  </crystal>
  <varray name="positions" >
   <v>       0.00000000       0.00000000       0.00000000 </v>
   <v>       0.33333333       0.66666667       0.50000000 </v>
  </varray>
 </structure>
</modeling>
